/*--------------------------------*- C++ -*----------------------------------*\
| =========                 |                                                 |
| \\      /  F ield         | OpenFOAM: The Open Source CFD Toolbox           |
|  \\    /   O peration     | Version:  2312                                  |
|   \\  /    A nd           | Website:  www.openfoam.com                      |
|    \\/     M anipulation  |                                                 |
\*---------------------------------------------------------------------------*/
FoamFile
{
    version     2.0;
    format      ascii;
    arch        "LSB;label=32;scalar=64";
    class       volScalarField;
    location    "100";
    object      div(phi);
}
// * * * * * * * * * * * * * * * * * * * * * * * * * * * * * * * * * * * * * //

dimensions      [0 0 -1 0 0 0 0];

internalField   nonuniform List<scalar> 
11040
(
-0.0130411
-0.0316307
0.010403
0.0184191
0.00591187
-0.0129819
-0.0188894
-0.0234808
-0.0807865
-0.0686882
-0.0321914
-0.0278352
0.034539
-0.0326778
0.0281592
0.0137888
0.054313
0.00665225
0.0542623
-0.00457336
0.0767685
-0.0268328
0.053954
0.0114041
0.0198761
0.0354583
0.000212118
0.0308647
-0.000121358
0.0259192
0.00219628
0.0196404
0.00426662
0.0132314
0.00290937
0.00808814
0.00147088
-0.00166505
-0.0156496
0.0568729
0.103564
-0.0120936
0.0110293
0.0332162
0.0452363
0.0537495
0.0643045
0.0739143
0.0811533
0.0821817
0.0879091
0.0843484
0.0631272
0.0611416
0.0021523
0.017182
-0.000795643
0.0225627
-0.00412194
0.0257634
-0.00802619
0.0305025
-0.0174249
0.0197854
-0.00794032
-0.00570369
0.00870755
-0.0122068
0.00278279
-0.0116509
0.00104758
-0.00782031
-0.000107887
-0.00378535
0.00134405
0.00191328
0.00536246
0.00829512
0.00999299
0.0181048
0.0447739
0.0777524
0.0173026
0.00306274
0.0152166
0.0194781
0.0131192
0.0052089
0.00140624
-0.00326279
-0.0144552
-0.0234004
-0.0240127
-0.0194013
-0.0163679
-0.0148262
-0.00364266
-0.00156575
0.0073511
-0.00149624
0.012344
-0.00380073
0.0222204
-0.00556157
0.0191013
0.00587983
0.00984303
0.014954
0.00323729
0.0127258
0.00313762
0.0112597
0.00370171
0.00882044
0.00339714
0.00561712
0.00112079
0.0029413
0.000192123
-0.00225503
-0.00721356
0.0108536
0.013514
0.00595566
0.00802242
0.015351
0.0128885
0.0151537
0.0151873
0.0179269
0.0192715
0.0212723
0.0251093
0.0283527
0.0290391
0.0256894
0.0160437
0.0137638
0.0093288
0.0103423
0.00529517
0.00907778
0.00129365
0.0100667
-0.00168877
0.00572051
-0.0109797
-0.00173693
0.00216501
-0.0031428
-0.0010461
-0.00443222
-0.00140298
-0.00293868
-0.00136758
-0.00184381
-0.000371514
0.000290871
0.00179513
0.00316604
0.00414288
0.00811372
0.015341
0.020778
0.00592704
0.00848434
0.0115723
0.0183046
0.0132643
0.0114428
0.00929228
0.00790938
0.00445725
0.000927005
-0.000538967
-0.001144
-0.00486249
-0.00363017
-0.0033815
-0.00170165
-0.0013683
-0.000784032
0.000440123
-0.00127507
0.00518408
0.000444623
0.00484488
0.00170885
0.00355108
0.00593394
0.00370317
0.00447016
0.00234753
0.0041121
0.00295594
0.00327256
0.00187386
0.00216118
0.0012171
0.00141577
0.000701212
-0.000482635
-0.00076663
0.00382719
0.00343853
0.0191525
0.00115947
0.0109261
-0.00142453
6.0408e-05
0.00183559
0.000551819
-0.000300908
-0.000465323
0.00145314
0.00325792
0.00582612
0.00821844
0.00866392
0.00875307
0.00840083
0.00796654
0.00688817
0.00632345
0.00421107
0.00550289
0.002151
0.00230994
-0.00130353
0.00095775
0.00178479
0.000412299
-0.000268995
-0.000839603
-0.000161348
-0.000498488
-0.000428142
-0.000402166
0.000118858
0.000195888
0.00063314
0.00069814
0.00100728
0.00210661
0.00354567
0.00364158
-0.00891381
0.00321899
-0.0111717
-0.00532593
0.00111746
0.000394553
0.00293513
0.00301546
0.00376056
0.00318756
0.00417551
0.00414847
0.00294561
0.00249686
0.00195357
0.00195965
0.00136677
0.00133766
0.000485772
0.000329984
0.00130564
0.000683075
0.000931711
0.000264604
0.0018209
0.00267842
0.00210062
0.00132671
0.00123183
0.00148036
0.00125617
0.000935399
0.000871815
0.000924699
0.000732867
0.000695144
0.000657181
0.000426052
0.000481992
0.00114727
0.000953071
0.0119052
-0.00883514
-0.00985367
0.00185291
-0.00389804
0.00520731
0.000233442
0.000576303
-0.00229175
-0.00107219
-0.0021767
-0.00304603
0.00062136
0.00139575
0.0019151
0.00274457
0.0032569
0.00344678
0.00331554
0.00357009
0.00296148
0.00246805
0.00132664
0.00134984
0.00180866
0.00224219
0.00122062
0.00102463
0.000697413
0.000992304
0.00053963
0.0005888
0.000486335
0.000592121
0.000401921
0.000427101
0.00022494
7.88332e-05
0.000208271
0.000284336
0.000128661
-0.00235894
-0.0130341
0.00312393
-0.00868191
0.00614083
-0.00362903
-0.00157051
-0.00638354
-0.00371772
-0.00507464
-0.00538844
7.79752e-05
0.000104552
0.00211085
0.00287048
0.00300612
0.00304278
0.00290362
0.00238485
0.00163048
0.00147047
0.0009363
0.000940169
0.000951393
0.00173925
0.00136668
0.00133901
0.000639899
0.000966053
0.00063844
0.000746575
0.000414769
0.000628078
0.00044219
0.000506676
0.000340169
0.000359887
0.000175106
0.000192967
0.000109726
8.67284e-05
-0.00668526
0.00188992
-0.00682513
0.00464662
-0.00284099
-0.000941879
-0.00511295
-0.00353679
-0.00409803
-0.00474586
-0.000134794
-0.00200868
0.000950562
0.000671578
0.000864075
0.000319703
0.00150107
-8.05512e-05
0.00143755
0.00138542
0.00142298
0.00104628
0.00108637
0.0009442
0.00151729
0.00219976
0.000179909
0.00167086
0.000189342
0.00139365
0.000123922
0.00111961
0.000222136
0.000884415
0.000124556
0.000696307
4.54941e-06
0.000383729
-0.000187026
0.000266137
-0.000298855
0.000255562
-0.001804
0.000851769
0.000398392
0.000283291
-0.000687144
-0.00101042
-0.00080064
-0.00148398
0.00063384
-0.00176199
0.00036706
-0.000873192
-0.000713854
-0.00173006
0.000314124
-0.0017257
0.00108025
0.000362871
0.00149895
0.00119935
0.00133098
0.000876573
0.00132787
0.00242603
0.00059016
0.00205201
-2.95444e-05
0.00162033
-0.000120506
0.00139233
-3.96004e-05
0.00115284
-0.000105221
0.000972412
-0.000190492
0.00073556
-0.000439628
0.00063741
-0.000464429
0.000540064
0.000609348
-0.000325158
0.00061201
0.00111779
0.00116396
0.00152669
0.001246
0.00154314
0.00163659
0.000573381
0.00106786
-0.000443813
-0.000640438
-0.0016567
-0.000143252
-0.00156241
0.000552559
-0.000801784
0.000682497
0.000286068
0.000942893
0.00033179
0.00100956
0.00118258
0.00183774
0.0019082
0.000626245
0.00111014
0.000214562
0.000890169
0.00012887
0.000780233
7.03265e-05
0.000719294
-2.53462e-05
0.000667041
-0.000232981
0.000632034
-0.000352328
0.000659167
-0.000381822
0.00102244
-0.000463744
0.000545288
0.000385419
0.000953405
0.00105487
0.00123018
0.00164734
0.00156392
0.00171582
0.000953586
0.000487741
0.000104421
0.000322282
-4.89098e-05
0.000628702
-0.000864209
0.000205819
-0.000776083
0.000381905
-0.000643326
0.000614088
-0.000178011
0.00145197
0.00204286
0.00256159
0.00111947
0.000636406
0.000500651
0.000284689
0.000324373
0.000235907
0.000278625
0.000205799
0.000285373
0.000180372
0.000276671
8.24169e-05
0.000289311
3.00093e-05
0.000193942
0.00116539
-0.000565127
0.000451166
-0.000196846
0.000681178
0.000279321
0.000811126
0.000874131
0.00103365
0.00143274
0.00111091
0.0014177
0.00113565
0.00114011
0.00123422
0.00012834
0.000580494
-0.000755991
0.000191333
-0.000817426
0.000409266
-0.000635112
0.00085274
0.000477036
0.00188164
0.00224934
0.000590642
0.00124842
-8.38595e-05
0.000775277
-0.000247715
0.000573942
-0.000190421
0.000485796
-6.26047e-05
0.000423505
3.53396e-05
0.000337457
8.32017e-05
0.000190782
-2.4392e-05
0.000887097
-0.000611987
0.000473462
-0.000370458
0.000651861
-9.30539e-05
0.000685111
0.000340113
0.000698812
0.000840829
0.000776766
0.00115447
0.000895307
0.00126672
0.000978741
0.000920915
0.000357988
0.000301078
1.97533e-05
0.000357008
6.68486e-05
0.000288478
-9.12438e-05
0.00105173
0.00166672
0.00141684
0.00215841
-0.000277252
0.00155784
-0.00072959
0.00125487
-0.000813597
0.0011311
-0.000806817
0.00109204
-0.000739139
0.00106746
-0.000712582
0.000993395
-0.000707135
0.000815729
0.000780055
-0.000502324
0.000420546
-0.000373884
0.000610463
-0.000252773
0.000621748
-3.36564e-05
0.000534045
0.000270553
0.000439807
0.000607164
0.000451315
0.000810133
0.000489936
0.000927477
0.000434326
0.000671885
0.000475192
0.000571802
0.000444947
-0.000280946
0.000887738
0.000257434
0.0013588
0.00179184
0.00192884
0.00111769
0.000179831
0.000690417
-0.000118026
0.00054328
-0.000207152
0.000497599
-0.000257633
0.000487307
-0.000259521
0.000457012
-0.000310796
0.000417041
-0.000320229
0.000595503
-0.000444659
0.000365324
-0.000369181
0.000492603
-0.000320698
0.000495558
-0.000203884
0.00041649
-1.28288e-05
0.000310583
0.000236087
0.000226726
0.000483336
0.000220798
0.000581405
0.000257446
0.000659226
0.000319281
0.000719573
0.000241977
0.000739802
-0.000538446
0.00137408
-0.000230013
0.00240281
0.000544493
0.00102395
0.000154447
0.000626145
-7.58461e-05
0.000510803
-0.000164248
0.000456376
-0.000211376
0.000449462
-0.00024197
0.000410014
-0.00027943
0.000382152
-0.000294891
0.000303461
-0.000245403
0.000243428
-0.000195857
0.000364437
-0.00016928
0.000400139
-0.000114655
0.000368851
-2.25756e-05
0.000287116
9.74684e-05
0.000198154
0.000217914
9.16787e-05
0.000390962
9.69149e-05
0.000448579
0.000205502
0.000396259
0.000156102
-0.000448816
0.00054114
-0.000401038
0.000834026
0.000827681
0.00081053
0.00119751
-0.000282865
0.00102791
-0.00046559
0.000915878
-0.000518575
0.000857369
-0.000523154
0.000821371
-0.000516991
0.000774054
-0.000509234
0.000725379
-0.000472474
0.000177082
-0.000180767
0.000180495
-0.00012952
0.00024499
-0.00011932
0.000263624
-0.000101159
0.000241727
-6.46989e-05
0.000182406
-2.44559e-06
9.80999e-05
9.28526e-05
5.13678e-05
0.000137612
8.46053e-06
0.000204923
-1.91372e-05
0.000242983
-6.93493e-05
0.00047915
-0.000917033
0.000901437
-0.000175216
0.000617693
0.000475196
0.000697906
0.000530943
-7.76197e-05
0.000464807
-0.000167269
0.000439967
-0.000210912
0.000426364
-0.00023859
0.000409581
-0.000261443
0.000384062
-0.00031092
0.000376629
-0.000148904
7.58432e-05
-5.52151e-05
8.61094e-05
5.34039e-05
5.64843e-05
0.00010328
3.45034e-05
0.00011128
2.05548e-05
8.13808e-05
1.7664e-05
3.76912e-05
1.97004e-05
-2.73603e-05
6.27219e-05
-6.13751e-05
7.85018e-05
-2.88451e-05
5.81041e-05
3.741e-05
-0.000586525
0.000625716
-0.00103354
0.000654642
-0.000877529
0.00128637
-0.00109942
0.000721672
-0.000384461
0.000601919
-0.000430144
0.000599252
-0.000436782
0.000602285
-0.000437047
0.000587931
-0.000430643
0.000545655
-0.000393557
0.000479488
0.000321123
-0.000313279
0.000276375
-0.000253069
0.000355506
-0.000232619
0.000369914
-0.000219395
0.000336818
-0.000197496
0.000262348
-0.000156308
0.000161742
-8.01222e-05
5.7362e-05
1.91056e-05
-2.58487e-05
0.000137643
-9.4533e-05
0.000279149
-0.000142042
0.000857515
-0.000535438
0.000762601
-0.000738243
0.000273529
-0.000732647
0.00115465
-0.000657023
0.000483585
-7.98139e-05
0.000425399
-9.64477e-05
0.000425931
-0.00013184
0.000405651
-0.000166684
0.000381364
-0.000174292
0.000358284
-0.000229109
-0.000158529
-1.14455e-05
-8.61867e-05
9.90767e-05
-1.03193e-05
0.00014838
1.68881e-05
0.000174922
2.97323e-05
0.000167482
4.08868e-05
0.000154136
5.73636e-05
0.000114901
9.42417e-05
9.88539e-05
0.00014097
9.32387e-05
0.00021752
5.62248e-05
0.000519924
-0.000283874
0.000556405
-0.000691356
0.00034721
-0.000186539
0.000390856
0.000169762
0.000471052
0.000368255
1.61683e-05
0.000358876
-1.11669e-05
0.000354502
-3.91016e-05
0.00035594
-5.57146e-05
0.00034557
-7.23215e-05
0.000337542
-0.000131155
0.000116031
-0.000161337
3.60096e-05
-4.05313e-05
8.14582e-05
3.47714e-05
9.43647e-05
7.64016e-05
8.97585e-05
9.52412e-05
8.81271e-05
9.87555e-05
9.60651e-05
9.35869e-05
0.000103358
9.2425e-05
0.000151539
0.000119363
0.000143688
0.000158227
-0.000190741
0.000156519
-0.000564972
0.00037932
-0.000492657
0.000439161
-0.000577083
0.00074669
-0.000701144
0.00033564
-0.000195497
0.000280589
-0.000164715
0.000286332
-0.000104302
0.000282876
-8.61226e-05
0.000278127
-0.000116471
0.000291655
-0.000157768
-0.000107368
3.10376e-05
-0.000164293
0.00010928
-9.82263e-05
0.000167193
-7.0947e-05
0.000181416
-5.18842e-05
0.000169244
-2.92729e-05
0.000142147
4.36096e-06
9.21705e-05
5.80058e-05
6.29641e-05
0.000123148
4.90075e-05
0.000175017
-1.38611e-06
0.000197684
-0.000127281
0.000425899
-0.000261103
0.000379786
-0.000394414
5.52145e-05
-0.000465792
0.000486585
-0.000498293
0.000194898
-5.73929e-05
0.00018147
-3.08599e-05
0.000208488
-8.04907e-06
0.000222852
-4.99651e-06
0.000223287
-3.10568e-05
0.000221378
7.23262e-05
-0.00013033
-3.14269e-05
-5.18077e-05
3.81081e-05
2.10049e-07
7.11518e-05
1.98471e-05
8.01423e-05
3.07906e-05
8.49581e-05
4.27544e-05
7.68842e-05
6.08078e-05
6.93766e-05
7.85564e-05
6.02543e-05
9.59873e-05
3.8319e-05
0.000111907
1.07621e-05
0.000234187
-0.000180014
0.000262507
-0.000332543
0.000158605
-8.06716e-05
0.000164344
0.000173279
0.000155697
0.000239857
-7.9786e-05
0.000218544
-8.85176e-05
0.000216168
-7.84562e-05
0.0002118
-7.22364e-05
0.000200167
-7.53911e-05
0.000179439
-8.09348e-05
-2.53566e-05
-0.000105962
9.96886e-06
-3.13409e-05
4.35127e-05
8.51985e-06
4.83088e-05
2.90018e-05
4.82229e-05
4.06802e-05
5.04425e-05
4.71625e-05
5.32348e-05
4.35178e-05
6.41748e-05
3.29152e-05
6.74279e-05
2.72969e-05
6.19204e-05
3.43602e-05
-0.00010692
5.35202e-05
-0.000289201
0.000140274
-0.000284843
0.000185872
-3.751e-05
0.000104028
0.000111984
9.66626e-05
0.00016012
-6.79298e-06
0.00015855
-7.24634e-07
0.000145192
2.27765e-06
0.000130338
-7.88455e-06
0.000128191
-3.3214e-05
9.99504e-05
-0.000115646
2.44184e-06
-8.61879e-05
4.8964e-05
-4.50042e-05
7.73622e-05
-2.82692e-05
8.12815e-05
-1.55351e-05
7.34833e-05
7.13527e-08
5.86352e-05
1.97186e-05
3.95088e-05
3.95724e-05
1.65065e-05
6.20591e-05
-9.93154e-07
8.07368e-05
-1.70229e-05
9.58269e-05
-7.61673e-05
0.000161801
-0.000146132
0.000193991
-0.000185935
0.000103727
-0.000182692
0.000261548
-0.000208202
0.000108281
-4.14232e-05
9.22163e-05
-2.30423e-05
8.87797e-05
-9.5132e-06
9.00403e-05
-9.55885e-06
0.000102837
-1.98846e-05
-7.23716e-05
-4.51025e-06
-7.69135e-05
-1.63001e-05
-2.35299e-05
2.21822e-05
5.95642e-06
3.76335e-05
1.70128e-05
4.14692e-05
2.36648e-05
4.27221e-05
3.01613e-05
3.87505e-05
3.80374e-05
3.61055e-05
4.82057e-05
3.07495e-05
5.63801e-05
2.38077e-05
6.46293e-05
8.46698e-06
9.92053e-05
-8.72576e-05
0.000139051
-0.000179992
7.19803e-05
-6.26409e-05
2.05284e-05
5.88992e-05
-5.09717e-06
0.000105017
-2.87127e-05
0.000105888
-3.8566e-05
0.000111689
-4.90522e-05
0.00012728
-5.60336e-05
0.000139478
-7.09047e-05
6.54664e-05
-6.04059e-05
-8.90293e-06
-5.28648e-05
1.219e-05
-1.05181e-05
3.09813e-05
1.08487e-05
3.33097e-05
2.17147e-05
3.30237e-05
2.80821e-05
3.5245e-05
3.01064e-05
3.87653e-05
3.12967e-05
4.51726e-05
2.92404e-05
4.82839e-05
2.40035e-05
4.7467e-05
2.04898e-05
-4.25785e-05
4.78195e-05
-0.000148924
5.24799e-05
-0.000142743
1.16462e-05
-2.77312e-05
1.02356e-05
6.48629e-05
1.36703e-05
8.34124e-05
-1.90292e-05
8.47344e-05
-3.05408e-05
9.52787e-05
-5.60118e-05
9.82405e-05
-7.46445e-05
0.000119369
-3.51573e-05
2.18261e-05
-6.26007e-05
6.80939e-06
-3.81041e-05
3.20096e-05
-1.38515e-05
4.7485e-05
-3.14013e-06
5.02845e-05
5.48968e-06
4.91088e-05
1.41413e-05
4.32881e-05
2.41037e-05
3.51239e-05
3.35407e-05
2.66058e-05
4.16319e-05
1.56226e-05
5.38777e-05
-1.91757e-06
8.22775e-05
-5.40539e-05
7.88037e-05
-8.88309e-05
3.44907e-05
-7.6633e-05
3.89415e-05
-6.42239e-05
0.000141958
-5.20325e-05
9.14815e-05
-1.28625e-05
8.34816e-05
-1.65714e-05
9.04119e-05
-4.3493e-05
9.52873e-05
-6.82116e-05
0.000130337
5.7088e-05
-3.37573e-05
2.21539e-06
-3.83682e-05
-3.4817e-06
-4.92339e-06
1.93767e-05
1.27762e-05
2.84752e-05
2.13896e-05
3.4206e-05
2.58861e-05
3.65382e-05
3.12903e-05
3.61248e-05
3.52751e-05
3.70025e-05
3.82971e-05
3.19985e-05
4.35094e-05
2.34899e-05
5.65518e-05
-8.42931e-06
6.53322e-05
-3.64726e-05
4.34748e-05
-3.62832e-05
2.15178e-05
2.9565e-05
9.5703e-06
0.000110214
4.06651e-05
9.62396e-05
-2.28197e-06
9.00432e-05
-1.92221e-05
0.000101636
-5.15824e-05
0.000119999
-7.69249e-05
0.000152887
-1.67942e-05
1.94237e-05
-3.85397e-05
3.95328e-07
-2.38953e-05
1.32333e-05
1.13065e-06
2.34788e-05
1.40405e-05
2.66455e-05
2.13571e-05
2.96441e-05
2.62161e-05
3.08394e-05
2.88535e-05
3.34422e-05
2.88077e-05
3.58467e-05
3.08911e-05
3.30129e-05
2.48115e-05
-2.86192e-06
3.89346e-05
-3.61138e-05
5.27521e-05
-2.32609e-05
4.33332e-05
-2.45653e-06
4.86258e-05
5.96468e-05
4.65066e-05
9.74906e-05
7.65472e-05
7.54695e-05
2.87016e-06
8.02549e-05
-1.91263e-05
0.000100203
-3.75992e-05
0.00011872
-6.5658e-05
4.52823e-05
-2.28479e-05
1.4545e-05
-3.60686e-05
1.01803e-05
-1.67028e-05
2.17188e-05
-4.54378e-06
3.03259e-05
1.1166e-06
3.48384e-05
4.27783e-06
3.58419e-05
7.86146e-06
3.61221e-05
9.50265e-06
3.53583e-05
1.17644e-05
2.78642e-05
1.84121e-05
1.08554e-05
4.75326e-05
-1.05034e-05
6.66315e-05
-1.06514e-05
5.55523e-05
5.19362e-06
4.80214e-05
2.97009e-05
6.90341e-05
1.66893e-05
0.000105806
4.27534e-05
7.85599e-05
-1.34563e-06
7.92103e-05
-1.36835e-05
8.96417e-05
-3.19827e-05
0.00010274
-5.97583e-05
-8.75644e-06
1.68634e-05
-2.89624e-05
4.66871e-06
-2.078e-05
-3.57987e-06
-2.44229e-06
8.53875e-06
5.96823e-06
1.4592e-05
9.15143e-06
1.79855e-05
1.19259e-05
2.06211e-05
1.17836e-05
2.25213e-05
1.13191e-05
1.79721e-05
1.36671e-05
1.19346e-05
3.27429e-05
-7.24606e-06
6.20582e-05
-1.38955e-05
6.5726e-05
5.24931e-07
6.78458e-05
1.68723e-05
7.01108e-05
6.07739e-05
3.84187e-05
8.36533e-05
5.75754e-05
7.13505e-05
-8.09585e-06
7.2352e-05
-2.26751e-05
8.02458e-05
-4.24347e-05
9.59787e-05
-7.25894e-05
3.34421e-05
-1.8836e-05
9.47607e-06
-2.81927e-05
-1.14023e-05
-8.36407e-06
-4.38691e-06
2.97174e-06
2.53569e-06
8.37823e-06
6.00274e-06
1.21178e-05
6.32774e-06
1.4831e-05
8.45326e-06
1.56359e-05
7.37158e-06
1.69823e-05
4.55421e-06
1.33753e-05
-1.27239e-05
3.62571e-05
-2.82103e-05
6.40825e-05
-9.79009e-06
7.24292e-05
1.26042e-05
6.88123e-05
3.75178e-05
7.77902e-05
1.77462e-05
0.00010834
3.25355e-05
7.83942e-05
-9.6857e-06
8.2637e-05
-3.40704e-05
0.000102713
-5.1571e-05
0.000116996
-7.95839e-05
-6.60741e-06
1.20148e-05
-2.65602e-05
-3.06464e-06
-1.34697e-05
-1.39794e-05
-4.57592e-07
-3.84465e-06
4.41331e-06
1.6131e-06
5.31574e-06
5.29115e-06
6.55053e-06
9.69208e-06
4.84095e-06
1.33632e-05
3.15923e-06
9.87159e-06
6.02145e-06
6.39951e-06
2.91211e-05
-9.60259e-06
5.85048e-05
-1.76186e-05
6.82694e-05
-1.25305e-06
6.60817e-05
1.50359e-05
5.60876e-05
5.82252e-06
5.51411e-05
-2.25656e-05
0.000100465
-1.90277e-05
6.73437e-05
-1.56164e-05
7.51509e-05
-3.92074e-05
8.38583e-05
-5.7779e-05
0.000104709
2.4182e-05
-1.73882e-05
4.74637e-06
-1.95904e-05
-1.61241e-05
2.41554e-08
-1.15432e-05
5.31954e-06
-8.12483e-06
1.04648e-05
-7.85489e-06
1.56673e-05
-8.78832e-06
1.92489e-05
-8.38707e-06
2.3394e-05
-9.96093e-06
2.64605e-05
-9.85041e-06
2.28939e-05
-1.677e-05
2.97982e-05
-3.3555e-05
5.84137e-05
-1.51057e-05
6.66102e-05
1.11071e-05
5.16475e-05
4.461e-06
4.77733e-05
3.79138e-05
4.27878e-05
7.27401e-05
6.3827e-05
7.02576e-05
3.6452e-07
7.30788e-05
-2.00745e-05
7.70948e-05
-3.65428e-05
9.1131e-05
-7.26691e-06
8.12955e-06
-2.29462e-05
-5.10588e-06
-7.43707e-06
-1.31298e-05
-3.55285e-06
-4.57868e-06
7.73141e-07
-1.86447e-06
3.97097e-06
-1.21934e-06
6.9881e-06
1.31992e-06
1.12626e-05
1.33455e-06
1.6952e-05
3.71576e-07
1.63792e-05
1.21951e-06
1.39824e-05
-2.22489e-05
4.26945e-05
-2.84058e-05
7.22061e-05
7.5911e-06
5.53186e-05
8.78028e-07
5.75203e-05
5.93123e-06
7.25464e-05
3.71376e-06
0.00010233
2.65701e-05
6.08289e-05
1.14216e-06
5.94238e-05
-1.45238e-05
6.2861e-05
-2.69891e-05
7.45598e-05
1.66817e-05
-1.76908e-05
3.17384e-06
-1.74556e-05
-1.28926e-05
-5.68367e-06
-5.56169e-06
-3.05966e-06
-7.23248e-07
-1.22795e-06
2.27904e-06
1.22782e-07
6.54058e-06
-1.47544e-06
1.08223e-05
3.58368e-08
1.34656e-05
-1.15687e-06
1.7721e-05
2.53631e-06
1.05014e-05
4.34717e-05
-7.70521e-06
9.29398e-05
1.15014e-05
6.51014e-05
5.43534e-06
8.24697e-05
1.36113e-05
0.000123663
8.48534e-05
9.06744e-05
6.92294e-05
0.000134107
6.47255e-05
1.83987e-05
6.07983e-05
-3.90724e-07
5.91529e-05
-1.35853e-05
6.14302e-05
-8.84523e-06
5.92881e-06
-2.04908e-05
-4.45433e-06
-8.63849e-06
-8.59329e-06
-5.09731e-06
-2.32323e-06
-8.18767e-07
-3.76255e-07
2.40425e-06
-2.38972e-08
5.04008e-06
2.49898e-06
9.98903e-06
1.24079e-06
1.48856e-05
-9.85574e-07
1.43948e-05
-3.04485e-06
1.50299e-05
-2.62113e-05
5.97403e-05
-1.96181e-05
5.95756e-05
-1.04391e-05
9.77757e-05
-8.1761e-06
0.000201199
8.12401e-05
0.00017198
5.74926e-05
0.000130533
0.000115681
5.1282e-05
1.91806e-05
4.06209e-05
5.97106e-06
3.97046e-05
-7.53515e-07
4.00984e-05
1.06696e-05
-1.48407e-05
2.38628e-06
-1.52737e-05
-9.00244e-06
-7.65389e-06
-1.9426e-06
-4.13552e-06
1.05487e-06
-2.34831e-06
3.87623e-06
-1.75488e-06
8.75912e-06
-3.4724e-06
1.19202e-05
-6.14269e-06
1.42356e-05
-1.26262e-05
1.41365e-05
-4.52609e-06
5.64272e-06
7.67349e-05
7.74901e-06
8.50456e-05
-9.53116e-06
0.000116031
-6.66127e-06
0.000259331
4.63553e-05
0.000304102
0.000122214
0.000269508
-2.51878e-06
0.000367879
3.17446e-05
6.30004e-05
2.53633e-05
5.02611e-05
2.18606e-05
4.503e-05
1.81198e-05
-7.60668e-06
3.03777e-06
-1.62487e-05
-4.43592e-06
-1.00752e-05
-6.76799e-06
-6.80389e-06
-2.7038e-06
-1.95111e-06
4.42653e-07
-2.6357e-07
3.18792e-06
-7.65246e-07
5.62424e-06
-1.6067e-06
5.34022e-06
-5.61688e-06
7.20119e-06
-4.37941e-06
1.97921e-07
4.67732e-05
-1.33299e-05
4.77312e-05
-3.69159e-05
9.1696e-05
-4.99251e-05
0.000239014
-4.26653e-05
0.000276964
-1.96862e-05
0.000271222
5.11428e-05
0.000227907
-0.000112791
0.000276616
-3.462e-05
4.33258e-05
-3.27641e-05
4.09992e-05
-2.99825e-05
5.21974e-05
5.00163e-06
-1.21625e-05
5.71577e-07
-1.43496e-05
-8.99883e-06
-8.38014e-06
-4.55024e-06
-4.50888e-06
-3.02468e-06
-1.51388e-06
-1.35534e-06
-4.78851e-07
3.55048e-08
9.23031e-07
-1.47311e-06
1.52857e-06
-1.96522e-06
-5.54382e-07
-6.90872e-06
7.00623e-06
-3.31342e-05
-8.96272e-06
-6.72996e-05
5.10739e-05
-7.66341e-05
0.000179362
-8.12784e-05
0.00020575
-0.000105217
0.00023257
-6.36073e-05
9.64105e-05
-6.55103e-05
2.28968e-05
-4.99836e-05
-6.22865e-05
2.60908e-05
-5.88381e-05
4.79497e-05
-4.15715e-05
6.72602e-05
-5.9602e-06
1.3964e-06
-1.1673e-05
-1.34213e-06
-9.37903e-06
-6.33889e-06
-1.03128e-05
-6.94226e-06
-7.05406e-06
-5.5439e-06
-5.38288e-06
-4.05123e-06
-4.89462e-06
-4.29812e-06
-2.78677e-06
-3.8501e-06
-4.66507e-06
1.61626e-06
-9.79533e-06
-1.08575e-06
-9.69998e-06
-1.67465e-05
5.74068e-05
-4.95406e-05
0.000158563
-8.06484e-05
0.000200303
-0.000103021
0.000235512
-0.000112959
0.000214401
-3.93246e-05
0.000231517
-0.000177939
0.000300956
-5.99209e-05
5.86367e-05
-6.33012e-05
4.94796e-05
-5.71987e-05
4.31037e-05
2.61755e-07
-8.09294e-06
-2.06105e-06
-1.5943e-05
-1.00355e-05
-1.64883e-05
-1.15562e-05
-1.60009e-05
-1.43752e-05
-1.39126e-05
-1.33906e-05
-1.24556e-05
-1.08822e-05
-1.08674e-05
-1.04485e-05
-1.15792e-05
-5.09883e-06
-1.25035e-05
3.81595e-06
-7.65261e-06
8.00215e-06
2.82714e-06
-5.7442e-05
3.13692e-05
-0.000145382
1.83094e-05
-0.000214028
-2.99861e-05
-0.000289051
-0.00012701
-0.000398629
-0.000296642
-0.000312303
-0.000195778
-0.000433448
-0.000110445
8.80487e-07
-5.81822e-05
3.19258e-05
-2.63447e-05
3.34393e-05
-5.50214e-06
-8.1838e-06
-1.90286e-05
-1.39536e-05
-2.36338e-05
-1.99103e-05
-2.69933e-05
-2.281e-05
-2.3972e-05
-2.32675e-05
-2.16982e-05
-2.24795e-05
-1.96307e-05
-2.16772e-05
-1.47907e-05
-1.57212e-05
-1.35432e-05
-4.57057e-06
-2.22928e-05
-5.23066e-06
-1.70871e-05
-3.52667e-05
0.000108874
-5.12022e-06
0.000251884
7.41882e-05
0.000340119
0.000121327
0.000480276
0.000227912
0.000420548
0.000206816
0.000176281
-5.21875e-05
0.000198701
-7.99853e-05
-1.59247e-05
-9.42284e-05
-4.02091e-06
-7.83779e-05
1.18992e-05
-5.90121e-06
-1.30983e-05
-1.45678e-05
-2.15851e-05
-2.31098e-05
-2.77185e-05
-2.38317e-05
-2.64499e-05
-2.35973e-05
-2.69977e-05
-2.41059e-05
-2.9747e-05
-2.30879e-05
-3.19539e-05
-1.9871e-05
-3.34601e-05
-1.04231e-05
-3.65253e-05
8.66539e-06
-3.80168e-05
1.18182e-05
-4.54361e-06
-7.6465e-05
-0.000168281
-0.000340108
-0.000562357
-0.000698438
-0.00082217
-0.000978501
-0.00117724
-0.00104408
-0.000879714
-0.000520762
-0.00134739
-0.000194163
-0.000113605
-7.34426e-05
-5.34282e-05
-3.57761e-05
-5.86396e-05
-3.09517e-05
-2.47658e-06
-3.21308e-06
-4.94229e-06
-6.5349e-06
-8.3135e-06
-8.4318e-06
-9.96459e-06
-1.00353e-05
-1.19589e-05
-1.27061e-05
-1.4997e-05
-1.59699e-05
-1.89145e-05
-1.9015e-05
-2.32445e-05
-2.20521e-05
-2.77468e-05
-2.8222e-05
-3.06137e-05
-4.22329e-05
-3.62955e-05
-4.65104e-05
-5.70592e-05
6.89079e-06
5.22099e-06
0.000137784
0.000192712
0.000299909
0.000324317
0.000555205
0.000407722
0.00052348
0.000111309
0.000746096
-1.29791e-05
4.24461e-05
-9.69136e-05
2.44176e-05
-0.000137417
3.08962e-05
-0.000143827
0.105322
0.0037331
-0.00495655
-0.0340963
-0.0475405
-0.00295124
-0.0237229
-0.0188472
-0.002126
-0.0448269
0.0267756
-0.0288395
0.0257076
-0.00340472
-0.0120615
0.00450306
-0.0394393
0.0634101
0.0208142
0.0192392
-0.0170572
-0.000410726
-0.00875223
-0.0282361
0.00532629
0.00024598
0.018958
0.0060567
0.00264173
0.0741616
-0.0599645
0.0172757
0.00249147
-0.0469991
0.0204725
-0.0664536
0.0161769
0.099913
-0.108091
0.0215872
0.00522866
0.0267359
0.00707435
-0.0991192
0.0909209
0.0367012
0.0452941
0.0517412
0.0457597
0.00174148
0.00567683
-0.0562663
-0.0422378
-0.0106875
-0.0243861
0.0278495
-0.00248523
0.0274358
0.004421
-0.00563962
0.0194315
-0.0255164
0.033593
-0.0173375
-0.0127563
-0.00328415
-0.00117275
-0.00267545
-0.00293076
-0.00215099
0.00457347
0.00308244
0.00197174
0.00163122
0.0592703
0.0138086
-0.00772378
-0.0202943
-0.0200984
-0.0117499
-0.0124116
-0.0107497
-0.0096975
-0.00986787
-0.00268932
-0.00431859
0.000825257
-0.00281136
-0.0086224
-0.00165708
-0.0363971
0.0195442
0.00785768
0.0118454
-0.00783989
0.00711427
-0.00835904
-0.00928852
0.0125462
-0.00554338
0.00557118
0.00841943
0.0034416
0.0022851
-0.018913
-0.0104924
-0.00983198
-0.0111101
0.0352933
0.0224128
0.0355595
0.0328353
-0.00233568
-0.00777959
-0.0333571
-0.0320198
-0.0278438
-0.0226172
0.0206628
0.000316837
-0.0269398
-0.0162259
0.0063343
-0.0274978
0.0197789
-0.00696396
0.00148019
0.0255907
-0.00242716
0.0354252
-0.0224992
0.0186583
0.0209469
0.0173418
0.0130848
0.00728532
0.00744656
0.00638077
-0.00322966
-0.00355392
-0.00439677
-0.00619104
-0.00574253
-0.00537988
-0.003555
-0.00234179
-0.000781025
0.000126925
0.0166053
0.00816927
0.00484919
0.000790968
-0.00303108
0.000231338
0.000911128
0.00213439
0.00381326
0.000961851
0.00291212
-7.64105e-05
0.0012214
0.000846597
0.00143583
-0.00943931
-0.0342885
0.0386313
0.0107214
0.00495184
-0.00538267
-0.00251302
-0.00174469
-0.00461235
-0.0031514
-0.000188709
0.0052503
-0.000897758
-0.000311129
0.00237794
-0.00288508
-0.00158549
-0.000630652
-0.0178248
0.00026482
-0.00909781
-0.00659393
0.0101175
-0.00278335
0.0139946
0.0101926
0.00957214
0.00642931
-0.021239
0.00120694
0.0177825
0.0260058
0.0298972
0.016383
0.00763127
-0.012242
-0.0255826
-0.0294258
-0.0149864
-0.0109586
0.0102021
0.0121725
-0.00467626
-0.00201693
-0.00504993
-0.00030179
-0.00537294
0.00326915
0.00192161
-0.00482983
-0.000150771
0.000630738
0.000365566
0.000157646
-0.00038638
0.00247016
0.00129974
0.000590127
0.000385738
0.0191771
0.00827282
-0.00299341
-0.0104259
-0.0124026
-0.00993068
-0.00859747
-0.00771196
-0.00648167
-0.00576445
-0.003408
-0.00239527
-0.000990128
-0.00184746
-0.00473519
-0.00633169
0.0191782
0.0284338
0.000848071
0.00181335
-0.000198063
0.000406521
-0.00018456
0.0028693
0.00180595
-0.00219726
-0.00144109
0.00281334
0.00131365
0.00232618
-0.00415211
0.000904992
0.000781974
-0.000650177
0.0254502
0.0157427
0.016975
0.0116375
-0.00702843
-0.013104
-0.0275341
-0.0234893
-0.0178317
-0.0107302
0.0152516
-0.016723
-0.0200014
-0.00732675
-0.00457529
0.000564819
0.00642275
0.0109989
0.00541699
0.00926509
-0.00208308
0.00558846
-0.00400877
0.0130636
0.0167616
0.0135582
0.00992445
0.00627364
0.00447565
0.00502947
-0.00283872
-0.00319629
-0.00449004
-0.00557413
-0.00476313
-0.00418483
-0.00280735
-0.00191102
-0.000194561
0.000280423
0.00288422
0.00210462
0.000985272
0.000602108
-0.000337524
0.000488635
0.00150776
0.0021934
0.00322896
0.00242426
0.00189078
0.00140012
0.000402711
0.00113447
0.00155782
-0.00598984
-0.0388712
0.0136152
0.00521526
0.00266231
-0.000715086
-0.000438094
-0.00137811
-0.00193919
-0.00195178
-0.000597518
0.00154025
-0.00221013
-0.00164646
-0.00146893
-0.00026908
-0.00121085
-0.000249773
-0.00848719
-0.00125376
-0.00335189
-0.00570661
0.0048519
0.00301143
0.0114803
0.0105357
0.00727335
0.00523574
-0.01358
-0.00495258
0.0145185
0.013592
0.0163243
0.00631989
0.000172867
-0.0113925
-0.0177536
-0.0197624
-0.0096483
-0.00346261
0.00795882
0.0109672
-0.00796304
-0.00521979
-0.00683801
-0.00255417
-0.00467981
0.000445596
0.00191066
-0.00291938
0.000534788
0.00117633
0.00130415
0.00120084
0.000586546
0.00246382
0.00122985
0.000493057
0.000198707
0.00367722
0.00193996
-0.000562573
-0.00284097
-0.00427987
-0.00448528
-0.00425673
-0.00415773
-0.00360692
-0.00328727
-0.0024859
-0.00183758
-0.00166065
-0.00203463
-0.00329212
-0.00459749
0.0109013
0.00943429
-0.000616404
0.000290907
0.000173358
0.000274728
0.000166945
0.00169466
0.000993376
-0.00125419
-0.00217323
0.00161102
0.00167217
0.00272569
0.00196962
0.00364946
0.00266547
0.000824465
0.0111887
0.00401849
0.00194436
-0.00149052
-0.0097909
-0.0111615
-0.0184292
-0.0120571
-0.00861067
-0.00196416
0.0118842
-0.015491
-0.0145484
-0.00797902
-0.00278246
0.00152572
0.00775709
0.0107644
0.00686315
0.00818048
4.26532e-05
0.00152276
-0.00608782
0.0104395
0.0132693
0.010637
0.00744453
0.00512179
0.00282645
0.00344705
-0.0023007
-0.00295944
-0.0044466
-0.00508601
-0.0042162
-0.003381
-0.00231414
-0.00152807
0.000103901
0.000321025
0.000395411
-2.05831e-05
-0.000416715
-0.000259896
-0.000379617
-0.000137243
0.000207407
0.000603205
0.00121595
0.00106011
0.000982593
0.00077305
0.000201598
0.000417976
0.00099756
-0.00111213
-4.72185e-05
0.00238481
0.0021117
0.00174951
0.000993473
0.000217502
-0.000745909
-0.000687703
-0.000682227
-1.05225e-05
0.00112528
-0.00220605
-0.00131896
-0.00166328
0.000603283
-0.000444855
0.000397316
-0.00277927
-0.00159699
-0.0014747
-0.00418904
0.00168529
0.0015957
0.00678427