/*--------------------------------*- C++ -*----------------------------------*\
| =========                 |                                                 |
| \\      /  F ield         | OpenFOAM: The Open Source CFD Toolbox           |
|  \\    /   O peration     | Version:  2312                                  |
|   \\  /    A nd           | Website:  www.openfoam.com                      |
|    \\/     M anipulation  |                                                 |
\*---------------------------------------------------------------------------*/
FoamFile
{
    version     2.0;
    format      ascii;
    arch        "LSB;label=32;scalar=64";
    class       volScalarField;
    location    "100";
    object      magR;
}
// * * * * * * * * * * * * * * * * * * * * * * * * * * * * * * * * * * * * * //

dimensions      [0 2 -2 0 0 0 0];

internalField   nonuniform List<scalar> 
11040
(
1.5403
3.29662
5.22624
7.47117
9.69351
18.9354
25.0837
24.6405
27.4225
29.9238
32.756
36.2508
39.7858
42.7304
44.91
46.4278
47.3845
47.7977
47.6162
46.7982
45.2047
43.08
40.9059
38.8946
37.0312
35.1641
33.264
31.3235
29.3366
27.2937
25.1881
23.0111
20.7593
18.4244
16.0058
13.5342
11.0312
8.59518
5.95138
3.48086
1.72035
0.218816
0.265404
0.415513
0.957903
2.34964
6.04402
12.6575
20.0219
26.1126
31.482
35.0796
36.2731
35.3675
33.0519
29.9913
26.7246
23.618
20.8466
18.4496
16.3852
14.7789
13.5747
12.6134
11.7481
11.0032
10.3653
9.81538
9.339
8.92717
8.57468
8.27514
8.02309
7.81082
7.63082
7.47516
7.33077
7.18567
6.99407
6.75446
6.13262
8.65694
0.127037
0.0933082
0.0837194
0.0681883
0.0277203
0.130954
0.579276
1.4598
2.53741
3.66696
5.01511
6.79475
9.08797
11.7964
14.6592
17.3084
19.3777
20.6094
20.9292
20.4491
19.3594
18.0569
16.835
15.679
14.6656
13.7871
13.0189
12.3442
11.7498
11.2236
10.755
10.3351
9.95887
9.62032
9.31989
9.05814
8.84596
8.65418
8.54851
8.10567
8.86052
0.0888416
0.0825666
0.0722686
0.0616589
0.0519286
0.0372566
0.0209979
0.0116295
0.00491498
0.00570559
0.0171885
0.0378153
0.0836955
0.190306
0.414343
0.847502
1.60335
2.76718
4.34972
6.252
8.2925
10.1307
11.5104
12.3872
12.8524
13.0277
13.0004
12.8417
12.6062
12.3327
12.0476
11.7681
11.5052
11.2633
11.0463
10.8533
10.6939
10.539
10.4699
10.1359
10.5627
0.061411
0.0594701
0.0546254
0.0472625
0.0400162
0.0346986
0.0288649
0.0213155
0.0143306
0.00964224
0.00684777
0.00498473
0.00339576
0.00184827
0.000625243
0.000111742
0.000151358
0.00145074
0.00767376
0.0629782
0.242806
0.629077
1.23404
2.02318
2.95159
3.96576
5.00492
6.01591
6.95944
7.81086
8.55843
9.20125
9.74557
10.2035
10.5876
10.9048
11.1694
11.3669
11.5669
11.5615
11.9549
0.0417014
0.0421009
0.0409925
0.0378312
0.0337561
0.0300159
0.0270324
0.0242764
0.0212131
0.0178693
0.0146667
0.0120404
0.0101277
0.00871102
0.00741832
0.00589763
0.00417893
0.00154922
0.00311557
0.0111642
0.00638814
0.00414629
0.00288979
0.00935564
0.0243415
0.0739562
0.17927
0.361281
0.640764
1.03552
1.55852
2.21745
3.01298
3.94219
4.99167
6.13188
7.32236
8.51329
9.67859
10.6325
11.8615
0.028889
0.0296852
0.0303203
0.0298128
0.0281309
0.0257384
0.023209
0.0208091
0.0184263
0.0159188
0.0133875
0.0111135
0.00932031
0.0080207
0.00707786
0.00637013
0.00582209
0.0052795
0.00462429
0.00395396
0.00324548
0.00177741
7.86556e-05
2.36024e-05
0.00485502
0.0107951
0.000142254
0.000233846
0.00133051
0.0062401
0.0170455
0.0438586
0.106837
0.234794
0.468715
0.861211
1.47001
2.35793
3.57606
5.00434
7.18593
0.0202186
0.0208889
0.0217989
0.022191
0.0217947
0.0207793
0.0194187
0.0178871
0.0162008
0.0143386
0.0123721
0.0104772
0.00884446
0.00755801
0.00657566
0.00581918
0.00523345
0.00479469
0.0044429
0.0040925
0.00372265
0.00349718
0.00307491
0.00263657
0.00205474
0.00158266
0.00105745
0.000549631
0.000285576
0.00064629
0.00195238
0.000215456
5.90931e-05
0.0146441
0.000791759
0.0095204
0.036434
0.108381
0.287943
0.616695
1.50272
0.014313
0.014785
0.0155523
0.0162034
0.0164721
0.0162981
0.0157486
0.0149136
0.0138501
0.012586
0.0111818
0.00975102
0.00843202
0.00731975
0.00642441
0.00570772
0.00512998
0.00466334
0.00428293
0.00396626
0.00370069
0.00347963
0.00328865
0.00307645
0.00290378
0.00270262
0.00253541
0.00240579
0.00216799
0.00189997
0.00155654
0.0011928
0.000689523
5.01326e-05
0.000134865
0.00054241
0.00218415
2.93698e-05
0.00205382
0.00690963
0.0624605
0.0101974
0.010508
0.0110522
0.0116278
0.0120611
0.0122552
0.0121849
0.0118735
0.0113467
0.010628
0.00975485
0.00879034
0.00782211
0.0069334
0.00616473
0.00551711
0.00497567
0.00452451
0.0041479
0.00382882
0.0035546
0.00331773
0.00310977
0.0029267
0.0027763
0.002656
0.00256595
0.00250191
0.00247357
0.00242993
0.0023777
0.00227764
0.00220162
0.00203354
0.00173627
0.00125653
0.000766423
0.000142508
0.000169339
0.000255559
0.00283178
0.00729729
0.00749794
0.00785953
0.00828762
0.00869119
0.00899796
0.00916114
0.00915958
0.00898904
0.00865434
0.00817669
0.00759029
0.00694588
0.00630274
0.00570418
0.00517012
0.00470393
0.00430191
0.0039572
0.00365991
0.00340092
0.0031759
0.00297839
0.00280315
0.00265277
0.0025289
0.00242902
0.00234942
0.0022889
0.00224445
0.00221536
0.00219856
0.00219277
0.00220344
0.00220569
0.00216366
0.00205239
0.00176147
0.00135099
0.000895404
0.000243876
0.00523426
0.00536249
0.00559553
0.00588924
0.00619924
0.0064841
0.0067069
0.00684035
0.00686684
0.00677855
0.00657957
0.00628359
0.00591493
0.00550757
0.00509352
0.00469566
0.00432659
0.00399187
0.00369279
0.00342679
0.00319093
0.00298533
0.00280612
0.0026474
0.00250893
0.00239132
0.00229296
0.00221103
0.00214284
0.00208656
0.00204062
0.00200392
0.00197492
0.00195335
0.00193992
0.00193427
0.00192931
0.00193562
0.00190328
0.00186124
0.00156592
0.00375858
0.00384016
0.00398883
0.00418333
0.00440281
0.00462629
0.00483165
0.00499815
0.00510827
0.00514885
0.00511469
0.00500698
0.00483432
0.00461317
0.00436236
0.00409919
0.00383692
0.00358453
0.00334746
0.00312787
0.00292729
0.00274962
0.00259385
0.00245517
0.00233288
0.00222658
0.002135
0.00205666
0.00198943
0.0019315
0.00188129
0.0018374
0.00179839
0.00176288
0.00172969
0.00169838
0.00166809
0.00164108
0.00161789
0.00159558
0.00158223
0.00269894
0.00275073
0.00284527
0.00297194
0.0031209
0.00328193
0.00344322
0.00359221
0.00371655
0.00380503
0.00385012
0.0038479
0.00379848
0.00370724
0.00358278
0.0034348
0.00327256
0.00310387
0.0029349
0.00276967
0.0026121
0.00246827
0.00233949
0.00222291
0.00211818
0.00202493
0.00194272
0.00187038
0.0018065
0.00174978
0.00169899
0.00165298
0.00161066
0.00157085
0.00153248
0.0014946
0.00145627
0.00141658
0.00137573
0.00132962
0.00129625
0.00193626
0.00196929
0.0020296
0.00211154
0.00221057
0.00232177
0.00243907
0.00255564
0.00266415
0.00275701
0.0028279
0.00287207
0.00288664
0.00287142
0.00282882
0.00276307
0.002679
0.00258155
0.00247535
0.00236418
0.00225213
0.00214548
0.00204674
0.00195482
0.00187017
0.00179288
0.00172273
0.00165912
0.00160134
0.00154854
0.00149989
0.0014546
0.00141193
0.00137106
0.00133127
0.00129194
0.00125241
0.0012121
0.00117048
0.0011254
0.00108567
0.00138738
0.00140866
0.00144731
0.00150005
0.00156504
0.00163994
0.00172155
0.00180626
0.00189007
0.00196846
0.00203719
0.0020926
0.00213168
0.00215252
0.00215461
0.00213879
0.002107
0.00206148
0.00200484
0.00193954
0.00186862
0.00179714
0.0017278
0.00166068
0.00159676
0.00153657
0.00148017
0.00142734
0.00137799
0.00133167
0.00128792
0.00124632
0.00120646
0.0011678
0.00112994
0.00109255
0.00105526
0.0010178
0.000979834
0.000940357
0.000905018
0.000994977
0.00100868
0.00103347
0.00106733
0.00110974
0.00115958
0.00121509
0.00127432
0.0013351
0.00139495
0.00145131
0.00150179
0.00154416
0.00157653
0.0015976
0.00160673
0.00160406
0.0015904
0.00156678
0.00153436
0.00149481
0.00145159
0.00140698
0.00136153
0.00131637
0.00127218
0.00122933
0.00118806
0.0011483
0.00111003
0.00107309
0.00103734
0.00100259
0.000968621
0.000935206
0.000902264
0.00086964
0.000837219
0.000804836
0.000772104
0.000742354
0.000722485
0.000731398
0.000747627
0.000769844
0.000798077
0.000831763
0.000869821
0.0009111
0.000954397
0.0009983
0.00104131
0.001082
0.00111891
0.00115065
0.00117604
0.00119419
0.00120458
0.00120702
0.0012018
0.00118928
0.00117016
0.00114644
0.00111973
0.00109068
0.00106033
0.00102937
0.00099825
0.000967263
0.000936592
0.000906378
0.000876648
0.000847408
0.00081866
0.00079034
0.000762388
0.000734835
0.000707671
0.000680845
0.000654341
0.000627981
0.000603732
0.000536769
0.000542769
0.000553797
0.000568919
0.000588383
0.000611881
0.000638691
0.000668064
0.000699262
0.000731427
0.000763638
0.000795001
0.000824587
0.000851443
0.000874675
0.000893517
0.000907382
0.000915876
0.000918822
0.000916257
0.000908418
0.000896371
0.000881116
0.000863195
0.000843433
0.0008224
0.000800502
0.000778055
0.000755265
0.000732359
0.000709466
0.000686644
0.000663992
0.00064152
0.000619249
0.000597248
0.000575587
0.000554218
0.000533208
0.000512446
0.000493165
0.000408208
0.000412355
0.00042002
0.000430561
0.000444305
0.000461073
0.000480342
0.000501589
0.000524318
0.000547973
0.000571957
0.000595699
0.000618597
0.000640015
0.000659327
0.000675957
0.000689414
0.000699297
0.000705332
0.000707342
0.00070531
0.000699805
0.000691424
0.00068058
0.000667871
0.0006537
0.000638419
0.000622332
0.000605678
0.000588598
0.000571289
0.000553857
0.000536421
0.000519018
0.000501709
0.000484576
0.000467729
0.000451108
0.000434813
0.000418702
0.000403785
0.000316039
0.000318918
0.000324319
0.000331809
0.000341715
0.000353929
0.000368049
0.000383695
0.00040051
0.000418115
0.000436098
0.000454075
0.00047164
0.00048836
0.000503793
0.000517525
0.000529173
0.000538408
0.000544967
0.000548644
0.000549329
0.000547263
0.000542824
0.000536304
0.000528122
0.000518583
0.000507942
0.000496446
0.000484321
0.000471711
0.000458752
0.000445602
0.000432356
0.000419069
0.000405802
0.000392644
0.000379701
0.000366908
0.000354384
0.000341909
0.0003306
0.000248218
0.000250221
0.000254081
0.000259495
0.00026677
0.000275822
0.000286342
0.000298034
0.000310636
0.000323873
0.000337448
0.000351091
0.000364518
0.000377428
0.000389509
0.000400464
0.000410009
0.00041789
0.000423889
0.000427824
0.000429572
0.00042925
0.000427051
0.000423167
0.000417889
0.000411435
0.000404017
0.00039583
0.000387069
0.000377833
0.000368208
0.000358374
0.000348402
0.000338348
0.000328269
0.000318241
0.000308367
0.000298581
0.000289019
0.000279381
0.000271001
0.000197225
0.000198618
0.000201406
0.000205379
0.000210804
0.000217614
0.000225565
0.00023442
0.000243983
0.000254041
0.000264381
0.0002748
0.000285097
0.00029505
0.00030444
0.00031305
0.000320672
0.000327114
0.000332207
0.000335799
0.000337789
0.000338217
0.000337189
0.000334842
0.000331384
0.000326986
0.0003218
0.000315946
0.000309621
0.000302858
0.000295727
0.000288388
0.00028092
0.000273362
0.000265759
0.000258175
0.000250707
0.000243293
0.000236071
0.000228677
0.000222658
0.000158211
0.000159183
0.000161214
0.00016417
0.000168272
0.000173464
0.000179547
0.000186335
0.00019367
0.00020139
0.00020933
0.000217338
0.000225263
0.000232944
0.00024022
0.00024693
0.000252924
0.00025806
0.000262209
0.000265254
0.000267108
0.000267787
0.000267363
0.00026594
0.000263664
0.000260643
0.000256976
0.000252772
0.000248124
0.000243187
0.000237975
0.000232464
0.000226896
0.000221248
0.000215547
0.000209845
0.000204228
0.000198637
0.000193195
0.000187475
0.000183242
0.00012793
0.000128604
0.000130096
0.000132323
0.000135463
0.000139469
0.000144176
0.000149433
0.000155115
0.000161093
0.00016724
0.000173438
0.000179572
0.00018552
0.000191162
0.000196381
0.000201064
0.000205105
0.000208409
0.000210884
0.000212471
0.000213179
0.000213061
0.000212187
0.00021065
0.000208527
0.000205893
0.000202837
0.000199424
0.000195805
0.000191937
0.000187853
0.000183682
0.000179437
0.000175144
0.000170839
0.000166585
0.000162327
0.000158189
0.000153687
0.00015072
0.000104135
0.0001046
0.000105706
0.000107405
0.000109838
0.000112963
0.000116642
0.000120754
0.000125194
0.000129863
0.000134657
0.000139486
0.000144259
0.000148885
0.000153272
0.000157332
0.000160981
0.00016414
0.000166738
0.000168707
0.000170005
0.000170642
0.000170652
0.000170083
0.000169007
0.000167483
0.000165572
0.000163339
0.000160842
0.000158116
0.000155268
0.00015227
0.000149065
0.000145863
0.000142619
0.000139344
0.000136098
0.000132835
0.000129679
0.000126143
0.000124081
8.52416e-05
8.55624e-05
8.63902e-05
8.77016e-05
8.96086e-05
9.20711e-05
9.49751e-05
9.82198e-05
0.00010172
0.000105395
0.000109162
0.000112948
0.000116684
0.000120298
0.00012372
0.000126884
0.000129727
0.00013219
0.00013422
0.000135767
0.000136802
0.000137333
0.000137387
0.000137004
0.000136239
0.000135134
0.000133734
0.000132082
0.00013022
0.00012816
0.000126032
0.000123768
0.000121341
0.00011892
0.000116457
0.000113966
0.000111499
0.000109018
0.000106633
0.000103907
0.000102539
7.01074e-05
7.03271e-05
7.09542e-05
7.19798e-05
7.34916e-05
7.54521e-05
7.77656e-05
8.0348e-05
8.31294e-05
8.60431e-05
8.90231e-05
9.20112e-05
9.49514e-05
9.77889e-05
0.000100469
0.000102943
0.00010516
0.00010708
0.00010866
0.000109866
0.000110675
0.0001111
0.000111166
0.000110902
0.000110348
0.000109535
0.000108492
0.000107249
0.000105845
0.000104288
0.000102689
0.000100977
9.91629e-05
9.73181e-05
9.54472e-05
9.35639e-05
9.16997e-05
8.98222e-05
8.80229e-05
8.59131e-05
8.50483e-05
5.78887e-05
5.80402e-05
5.85224e-05
5.93362e-05
6.0549e-05
6.21255e-05
6.39856e-05
6.6058e-05
6.82853e-05
7.06121e-05
7.29856e-05
7.53581e-05
7.76858e-05
7.99248e-05
8.20339e-05
8.39742e-05
8.571e-05
8.72081e-05
8.84399e-05
8.93778e-05
9.0008e-05
9.03421e-05
9.04022e-05
9.02095e-05
8.97953e-05
8.91818e-05
8.83928e-05
8.74553e-05
8.63937e-05
8.52307e-05
8.39789e-05
8.27099e-05
8.13878e-05
7.99304e-05
7.85095e-05
7.70802e-05
7.56508e-05
7.42018e-05
7.28177e-05
7.11312e-05
7.05796e-05
4.7958e-05
4.80654e-05
4.84424e-05
4.90987e-05
5.00836e-05
5.13644e-05
5.2873e-05
5.45499e-05
5.63469e-05
5.82183e-05
6.0121e-05
6.20164e-05
6.38696e-05
6.56459e-05
6.73133e-05
6.88418e-05
7.02047e-05
7.13769e-05
7.23379e-05
7.30668e-05
7.35553e-05
7.38142e-05
7.3862e-05
7.37178e-05
7.34031e-05
7.29376e-05
7.23398e-05
7.16283e-05
7.08207e-05
6.99377e-05
6.89725e-05
6.80123e-05
6.69925e-05
6.58778e-05
6.47886e-05
6.3682e-05
6.25704e-05
6.14396e-05
6.03661e-05
5.90169e-05
5.86616e-05
3.98413e-05
3.99195e-05
4.0221e-05
4.076e-05
4.15696e-05
4.26206e-05
4.38553e-05
4.52234e-05
4.66839e-05
4.81993e-05
4.97344e-05
5.12578e-05
5.27415e-05
5.41581e-05
5.54828e-05
5.66923e-05
5.77666e-05
5.86867e-05
5.94377e-05
6.00043e-05
6.03814e-05
6.05799e-05
6.06186e-05
6.05096e-05
6.02703e-05
5.99145e-05
5.94553e-05
5.89086e-05
5.82868e-05
5.76072e-05
5.68627e-05
5.61266e-05
5.53384e-05
5.44992e-05
5.36477e-05
5.27866e-05
5.19298e-05
5.1058e-05
5.02343e-05
4.91831e-05
4.89712e-05
3.31729e-05
3.32332e-05
3.34808e-05
3.39316e-05
3.4606e-05
3.54778e-05
3.64975e-05
3.76227e-05
3.88183e-05
4.00538e-05
4.13e-05
4.25318e-05
4.37263e-05
4.48622e-05
4.59197e-05
4.68816e-05
4.77322e-05
4.8458e-05
4.90478e-05
4.94912e-05
4.97842e-05
4.99371e-05
4.99657e-05
4.98806e-05
4.96943e-05
4.94181e-05
4.90631e-05
4.8641e-05
4.81629e-05
4.76388e-05
4.70768e-05
4.64812e-05
4.58923e-05
4.52846e-05
4.45929e-05
4.39349e-05
4.32837e-05
4.26141e-05
4.19816e-05
4.11651e-05
4.1059e-05
2.76701e-05
2.772e-05
2.79299e-05
2.83139e-05
2.88838e-05
2.96148e-05
3.04646e-05
3.1397e-05
3.2383e-05
3.33969e-05
3.44148e-05
3.54166e-05
3.63837e-05
3.72993e-05
3.81482e-05
3.89169e-05
3.95938e-05
4.0169e-05
4.06344e-05
4.09829e-05
4.12112e-05
4.13282e-05
4.13492e-05
4.12815e-05
4.1136e-05
4.09218e-05
4.0647e-05
4.03208e-05
3.99517e-05
3.95471e-05
3.91155e-05
3.86495e-05
3.81979e-05
3.77198e-05
3.719e-05
3.6685e-05
3.61779e-05
3.56539e-05
3.51595e-05
3.45067e-05
3.44534e-05
2.31117e-05
2.31567e-05
2.334e-05
2.36737e-05
2.41622e-05
2.47811e-05
2.54952e-05
2.62738e-05
2.70926e-05
2.79299e-05
2.87666e-05
2.95859e-05
3.03733e-05
3.11154e-05
3.18005e-05
3.24182e-05
3.29597e-05
3.34179e-05
3.37866e-05
3.40615e-05
3.42403e-05
3.43323e-05
3.43501e-05
3.42996e-05
3.41883e-05
3.40229e-05
3.38106e-05
3.35589e-05
3.32744e-05
3.29616e-05
3.26277e-05
3.22666e-05
3.19171e-05
3.15444e-05
3.11338e-05
3.07388e-05
3.03387e-05
2.99239e-05
2.95335e-05
2.90082e-05
2.89749e-05
1.93231e-05
1.93668e-05
1.95316e-05
1.98273e-05
2.02507e-05
2.07798e-05
2.13848e-05
2.20396e-05
2.2724e-05
2.34198e-05
2.41116e-05
2.47857e-05
2.54305e-05
2.60355e-05
2.65916e-05
2.70909e-05
2.75271e-05
2.78946e-05
2.81894e-05
2.84082e-05
2.85497e-05
2.86209e-05
2.86341e-05
2.85935e-05
2.85049e-05
2.83741e-05
2.82069e-05
2.80087e-05
2.77851e-05
2.75401e-05
2.72793e-05
2.69962e-05
2.67226e-05
2.64263e-05
2.61183e-05
2.58015e-05
2.5483e-05
2.51578e-05
2.48517e-05
2.44402e-05
2.44015e-05
1.61657e-05
1.62103e-05
1.63623e-05
1.6628e-05
1.69992e-05
1.74555e-05
1.79717e-05
1.8526e-05
1.91014e-05
1.96831e-05
2.02583e-05
2.08162e-05
2.13475e-05
2.18437e-05
2.2298e-05
2.27044e-05
2.30582e-05
2.33555e-05
2.35937e-05
2.3771e-05
2.38859e-05
2.3945e-05
2.39591e-05
2.39312e-05
2.38658e-05
2.37676e-05
2.36408e-05
2.34898e-05
2.33191e-05
2.31305e-05
2.29274e-05
2.27111e-05
2.24879e-05
2.22606e-05
2.20326e-05
2.17727e-05
2.15288e-05
2.12801e-05
2.10405e-05
2.07198e-05
2.06821e-05
1.35283e-05
1.3575e-05
1.3718e-05
1.39597e-05
1.42879e-05
1.46839e-05
1.51269e-05
1.55987e-05
1.6085e-05
1.65739e-05
1.70549e-05
1.75193e-05
1.79596e-05
1.83695e-05
1.87432e-05
1.90764e-05
1.93655e-05
1.96074e-05
1.98006e-05
1.99434e-05
2.00356e-05
2.00818e-05
2.00918e-05
2.00679e-05
2.00137e-05
1.99329e-05
1.98298e-05
1.97085e-05
1.95704e-05
1.94181e-05
1.92542e-05
1.90819e-05
1.89012e-05
1.8719e-05
1.85291e-05
1.83314e-05
1.81424e-05
1.79451e-05
1.77508e-05
1.75012e-05
1.74322e-05
1.13216e-05
1.13708e-05
1.15073e-05
1.17291e-05
1.20204e-05
1.23656e-05
1.27467e-05
1.31496e-05
1.35623e-05
1.39754e-05
1.43799e-05
1.47689e-05
1.51362e-05
1.54769e-05
1.57869e-05
1.60629e-05
1.63025e-05
1.65039e-05
1.66662e-05
1.67889e-05
1.68712e-05
1.69164e-05
1.69337e-05
1.69243e-05
1.68912e-05
1.68379e-05
1.67672e-05
1.66798e-05
1.65778e-05
1.64635e-05
1.63388e-05
1.6206e-05
1.60666e-05
1.59188e-05
1.5765e-05
1.56114e-05
1.54618e-05
1.53046e-05
1.51471e-05
1.49508e-05
1.4877e-05
9.47313e-06
9.5245e-06
9.65591e-06
9.85983e-06
1.01195e-05
1.04202e-05
1.07483e-05
1.10923e-05
1.14431e-05
1.1793e-05
1.21349e-05
1.24629e-05
1.27718e-05
1.30574e-05
1.33163e-05
1.3546e-05
1.37444e-05
1.39101e-05
1.40419e-05
1.41393e-05
1.42014e-05
1.42309e-05
1.42362e-05
1.42187e-05
1.4182e-05
1.41296e-05
1.40624e-05
1.39829e-05
1.3893e-05
1.37938e-05
1.36882e-05
1.35772e-05
1.34625e-05
1.33356e-05
1.32067e-05
1.30871e-05
1.29676e-05
1.2842e-05
1.27108e-05
1.25686e-05
1.24298e-05
7.92382e-06
7.97655e-06
8.1021e-06
8.28862e-06
8.51875e-06
8.7811e-06
9.06423e-06
9.35865e-06
9.65691e-06
9.95292e-06
1.02415e-05
1.05183e-05
1.07795e-05
1.10215e-05
1.12416e-05
1.14378e-05
1.16092e-05
1.17555e-05
1.18769e-05
1.19741e-05
1.20461e-05
1.20945e-05
1.21253e-05
1.21389e-05
1.21367e-05
1.21186e-05
1.20862e-05
1.20404e-05
1.19828e-05
1.19157e-05
1.18404e-05
1.17565e-05
1.16681e-05
1.15626e-05
1.14533e-05
1.13575e-05
1.12562e-05
1.1148e-05
1.10328e-05
1.09141e-05
1.07869e-05
6.62637e-06
6.67962e-06
6.79775e-06
6.96415e-06
7.16391e-06
7.38927e-06
7.6325e-06
7.88604e-06
8.14271e-06
8.39612e-06
8.64133e-06
8.87464e-06
9.09378e-06
9.29672e-06
9.48147e-06
9.64552e-06
9.78646e-06
9.90203e-06
9.99082e-06
1.00531e-05
1.00872e-05
1.00957e-05
1.00869e-05
1.00637e-05
1.00272e-05
9.98079e-06
9.92615e-06
9.86512e-06
9.8004e-06
9.73327e-06
9.66284e-06
9.58917e-06
9.51453e-06
9.43154e-06
9.34271e-06
9.27102e-06
9.19284e-06
9.11282e-06
9.02055e-06
8.96075e-06
8.72381e-06
5.54103e-06
5.59491e-06
5.70555e-06
5.85125e-06
6.01832e-06
6.20332e-06
6.40342e-06
6.61475e-06
6.83326e-06
7.05349e-06
7.26949e-06
7.47531e-06
7.66681e-06
7.8418e-06
8.00068e-06
8.14526e-06
8.2779e-06
8.40037e-06
8.51313e-06
8.61615e-06
8.70687e-06
8.78486e-06
8.85197e-06
8.90362e-06
8.93881e-06
8.9574e-06
8.95996e-06
8.94878e-06
8.92483e-06
8.88825e-06
8.84007e-06
8.78344e-06
8.7168e-06
8.64909e-06
8.554e-06
8.46023e-06
8.37981e-06
8.29086e-06
8.1894e-06
8.10253e-06
7.93409e-06
4.63136e-06
4.68379e-06
4.78692e-06
4.91549e-06
5.05645e-06
5.20688e-06
5.36432e-06
5.52723e-06
5.69548e-06
5.8691e-06
6.04707e-06
6.22645e-06
6.40188e-06
6.56611e-06
6.71122e-06
6.83043e-06
6.9196e-06
6.97766e-06
7.00656e-06
7.01053e-06
6.99173e-06
6.95566e-06
6.90848e-06
6.85511e-06
6.79822e-06
6.73985e-06
6.68291e-06
6.62797e-06
6.57482e-06
6.52373e-06
6.47546e-06
6.43029e-06
6.38584e-06
6.34575e-06
6.28912e-06
6.23551e-06
6.20249e-06
6.16671e-06
6.10653e-06
6.11739e-06
5.77575e-06
3.86958e-06
3.91141e-06
3.99612e-06
4.10225e-06
4.22206e-06
4.3543e-06
4.49399e-06
4.63466e-06
4.77108e-06
4.90035e-06
5.02276e-06
5.14172e-06
5.26274e-06
5.3917e-06
5.53314e-06
5.68908e-06
5.85836e-06
6.03698e-06
6.21879e-06
6.39674e-06
6.5652e-06
6.71778e-06
6.85242e-06
6.96415e-06
7.05143e-06
7.11495e-06
7.15526e-06
7.17367e-06
7.17186e-06
7.15208e-06
7.11677e-06
7.06705e-06
7.00324e-06
6.92993e-06
6.83168e-06
6.72518e-06
6.62937e-06
6.52166e-06
6.39818e-06
6.28949e-06
6.09354e-06
3.2434e-06
3.26884e-06
3.3197e-06
3.37772e-06
3.44543e-06
3.53224e-06
3.6429e-06
3.77721e-06
3.92986e-06
4.09046e-06
4.24502e-06
4.37897e-06
4.48017e-06
4.54143e-06
4.56165e-06
4.54544e-06
4.50138e-06
4.43953e-06
4.369e-06
4.29837e-06
4.22584e-06
4.15345e-06
4.08057e-06
4.01042e-06
3.94421e-06
3.88109e-06
3.82286e-06
3.77091e-06
3.72629e-06
3.68815e-06
3.65719e-06
3.63259e-06
3.61166e-06
3.59834e-06
3.57738e-06
3.56232e-06
3.56354e-06
3.56819e-06
3.54787e-06
3.63438e-06
3.25027e-06
2.74607e-06
2.77423e-06
2.81269e-06
2.83493e-06
2.84054e-06
2.84004e-06
2.84268e-06
2.8578e-06
2.89582e-06
2.96823e-06
3.08582e-06
3.25637e-06
3.4818e-06
3.75704e-06
4.07043e-06
4.40602e-06
4.74624e-06
5.07431e-06
5.37627e-06
5.64037e-06
5.86665e-06
6.05569e-06
6.20485e-06
6.31607e-06
6.39435e-06
6.44535e-06
6.47234e-06
6.48015e-06
6.46863e-06
6.44169e-06
6.40128e-06
6.34555e-06
6.27502e-06
6.19494e-06
6.10362e-06
5.99866e-06
5.89116e-06
5.78e-06
5.65653e-06
5.57302e-06
5.27855e-06
2.35792e-06
2.40191e-06
2.46578e-06
2.51938e-06
2.54818e-06
2.54737e-06
2.51526e-06
2.4554e-06
2.37775e-06
2.29704e-06
2.23033e-06
2.19343e-06
2.19658e-06
2.24144e-06
2.32076e-06
2.42141e-06
2.52834e-06
2.62851e-06
2.71247e-06
2.77651e-06
2.8155e-06
2.83053e-06
2.81712e-06
2.78675e-06
2.74835e-06
2.70407e-06
2.65498e-06
2.61448e-06
2.59535e-06
2.58825e-06
2.57937e-06
2.56645e-06
2.55641e-06
2.54569e-06
2.53136e-06
2.51897e-06
2.50415e-06
2.47889e-06
2.4573e-06
2.38847e-06
2.45538e-06
2.03468e-06
2.02684e-06
2.09516e-06
2.31353e-06
2.71071e-06
3.25003e-06
3.86519e-06
4.49602e-06
5.09853e-06
5.64333e-06
6.11208e-06
6.49469e-06
6.78791e-06
6.99345e-06
7.11705e-06
7.16742e-06
7.15532e-06
7.09214e-06
6.98942e-06
6.85627e-06
6.70311e-06
6.5681e-06
6.42737e-06
6.28898e-06
6.1534e-06
6.01804e-06
5.8854e-06
5.73809e-06
5.57352e-06
5.40312e-06
5.23241e-06
5.06466e-06
4.89758e-06
4.72361e-06
4.54729e-06
4.36896e-06
4.17917e-06
3.97517e-06
3.75276e-06
3.56493e-06
3.39588e-06
22.8628
22.457
18.6935
15.9203
13.9112
12.2391
10.7215
9.28202
7.89499
6.55297
5.23812
3.96213
2.81095
1.86309
1.11169
0.455929
0.0635212
0.0113657
0.0885488
0.29095
0.4715
0.49465
0.386039
0.227447
0.0894809
0.0129606
0.00568649
0.000982006
0.000596785
8.1291e-06
1.84132e-07
6.33979e-05
0.0001201
0.000116053
0.000104613
9.31722e-05
8.71887e-05
7.49273e-05
6.80406e-05
6.6402e-05
6.68355e-05
5.76005e-05
5.48536e-05
5.03653e-05
4.9246e-05
5.57022e-05
5.40671e-05
4.46594e-05
3.38625e-05
2.71109e-05
2.41984e-05
2.46239e-05
2.29985e-05
2.06304e-05
1.98449e-05
2.08503e-05
2.04673e-05
2.19985e-05
2.0173e-05
1.9101e-05
1.82817e-05
1.79091e-05
1.72333e-05
1.66218e-05
1.58123e-05
1.4609e-05
1.30341e-05
1.12751e-05
9.47173e-06
7.65562e-06
5.9157e-06
3.98421e-06
3.016e-06
1.70166e-06
8.16631
15.6194
16.7981
15.9575
14.7199
13.4997
12.3634
11.2694
10.1729
9.0526
7.88678
6.65561
5.40554
4.23487
3.20636
2.05169
0.788352
0.372919
0.603804
0.89469
1.07092
1.07015
0.915078
0.671965
0.409994
0.188935
0.0510013
0.00366307
0.00267554
8.25477e-05
2.3657e-05
4.47958e-06
2.86901e-05
0.000102947
0.000127451
0.000102871
8.29563e-05
7.05682e-05
6.78115e-05
6.67245e-05
6.53707e-05
5.50909e-05
5.09771e-05
4.93198e-05
4.82993e-05
5.6733e-05
5.06719e-05
4.32817e-05
3.50517e-05
2.9518e-05
2.51951e-05
2.34494e-05
2.19098e-05
2.18783e-05
2.31871e-05
2.52511e-05
2.36817e-05
2.38045e-05
2.1186e-05
1.974e-05
1.88074e-05
1.83522e-05
1.74564e-05
1.66507e-05
1.57105e-05
1.43693e-05
1.26793e-05
1.08226e-05
8.97533e-06
7.1397e-06
5.45741e-06
3.70623e-06
2.91471e-06
1.87882e-06
7.29123
3.59091
5.56362
7.85833
9.14231
9.72442
9.9426
9.94142
9.75373
9.39219
8.86697
8.16984
7.3133
6.37201
5.47442
4.40969
2.76976
1.58855
1.58858
1.81242
1.86064
1.77471
1.58001
1.29786
0.964703
0.626483
0.3315
0.124761
0.0229123
0.00301973
0.000369937
0.00061045
3.45531e-05
1.20113e-05
4.71335e-05
9.68871e-05
9.31305e-05
7.44367e-05
6.66585e-05
6.37325e-05
6.15517e-05
5.41063e-05
4.96556e-05
4.94292e-05
4.75923e-05
4.39133e-05
4.07379e-05
3.72092e-05
3.28045e-05
2.96471e-05
2.58953e-05
2.37635e-05
2.25905e-05
2.24962e-05
2.37078e-05
2.51242e-05
2.5183e-05
2.38124e-05
2.20931e-05
2.04737e-05
1.92732e-05
1.86187e-05
1.75786e-05
1.66205e-05
1.55499e-05
1.41403e-05
1.2414e-05
1.04975e-05
8.60927e-06
6.75581e-06
5.14114e-06
3.54814e-06
2.91406e-06
2.04728e-06
12.1352
10.3841
7.34812
4.34611
2.33703
2.39815
3.56532
4.76063
5.75518
6.50071
6.99752
7.24636
7.24104
6.99789
6.62814
6.09366
4.95434
3.51386
3.02117
3.11069
3.01416
2.75456
2.44316
2.09733
1.7149
1.30752
0.901149
0.533079
0.24589
0.0733322
0.00745508
0.00189592
0.000404653
1.49678e-05
1.06438e-05
2.95469e-06
4.6168e-05
7.74661e-05
7.94985e-05
6.75943e-05
5.85205e-05
5.23288e-05
4.98917e-05
5.04253e-05
4.80697e-05
3.92605e-05
3.35607e-05
2.97686e-05
2.74657e-05
2.69288e-05
2.54447e-05
2.43481e-05
2.36384e-05
2.28901e-05
2.28988e-05
2.28815e-05
2.36667e-05
2.37416e-05
2.26794e-05
2.11675e-05
1.9674e-05
1.87257e-05
1.75523e-05
1.64691e-05
1.53154e-05
1.38989e-05
1.2215e-05
1.03193e-05
8.43161e-06
6.57815e-06
5.03464e-06
3.5593e-06
3.00646e-06
2.13619e-06
13.2862
13.1338
12.1813
10.7576
8.86624
6.801
4.78288
2.92235
1.41552
1.2305
2.28169
3.38882
4.33717
5.05267
5.53006
5.78096
5.58376
4.89366
4.40231
4.42832
4.35068
3.98481
3.51878
3.05741
2.60796
2.15546
1.69449
1.23538
0.803594
0.438314
0.18092
0.0455042
0.00338461
0.00127494
4.82886e-05
1.19722e-05
3.65809e-06
2.84983e-06
3.4973e-05
6.52381e-05
6.82765e-05
5.905e-05
5.21486e-05
4.99805e-05
4.70253e-05
3.88127e-05
3.10505e-05
2.59266e-05
2.41687e-05
2.44789e-05
2.39885e-05
2.37106e-05
2.40745e-05
2.41078e-05
2.41415e-05
2.33319e-05
2.29959e-05
2.31233e-05
2.27113e-05
2.16358e-05
2.00489e-05
1.87695e-05
1.73958e-05
1.61666e-05
1.49578e-05
1.35804e-05
1.19968e-05
1.02029e-05
8.3814e-06
6.57232e-06
5.10644e-06
3.72625e-06
3.19863e-06
2.18352e-06
12.3099
11.922
11.5055
11.2051
10.8002
10.155
9.24932
8.09099
6.72354
5.23296
3.71218
2.23668
0.936417
0.898896
1.93557
2.89366
3.63408
4.12708
4.41374
4.77885
5.06678
4.95885
4.54723
4.04071
3.53997
3.0596
2.5861
2.10765
1.6242
1.15206
0.722625
0.376646
0.147961
0.0354716
0.0023037
0.000598738
0.00126603
1.01395e-05
3.76183e-06
9.19686e-08
2.02022e-05
4.90785e-05
6.1776e-05
5.82806e-05
4.8924e-05
3.836e-05
2.99085e-05
2.46009e-05
2.30112e-05
2.3639e-05
2.37891e-05
2.40966e-05
2.49809e-05
2.54284e-05
2.56419e-05
2.45874e-05
2.34884e-05
2.28817e-05
2.25301e-05
2.18954e-05
2.04999e-05
1.90066e-05
1.73336e-05
1.58382e-05
1.45125e-05
1.31712e-05
1.17171e-05
1.00893e-05
8.3966e-06
6.67999e-06
5.3092e-06
4.0196e-06
3.50256e-06
2.28238e-06
7.37031
6.85364
6.49814
6.45385
6.6151
6.90407
7.23228
7.49382
7.5794
7.41038
6.952
6.21307
5.22598
4.0513
2.7892
1.56871
0.518212
0.888115
1.95183
2.96084
3.88808
4.51326
4.67979
4.49949
4.1558
3.76032
3.3515
2.93145
2.49259
2.03309
1.56113
1.09957
0.684532
0.355963
0.142
0.0365501
0.00408235
0.000485892
2.14514e-06
1.89346e-05
2.08424e-06
4.85368e-06
1.95073e-05
3.84203e-05
5.09997e-05
4.47339e-05
3.39842e-05
2.63212e-05
2.32272e-05
2.33506e-05
2.41425e-05
2.51575e-05
2.62157e-05
2.64425e-05
2.63987e-05
2.52868e-05
2.40879e-05
2.30207e-05
2.23804e-05
2.20053e-05
2.10249e-05
1.96031e-05
1.76867e-05
1.58119e-05
1.42031e-05
1.27797e-05
1.14083e-05
9.96704e-06
8.44731e-06
6.85909e-06
5.59415e-06
4.39135e-06
3.88796e-06
2.46883e-06
1.63368
1.46557
1.33613
1.30768
1.36078
1.49995
1.74711
2.1149
2.60087
3.18081
3.80119
4.38032
4.81914
5.01929
4.91507
4.52038
3.88829
3.02153
1.90621
0.730859
0.681527
1.72869
2.67486
3.30819
3.59781
3.63476
3.52096
3.31943
3.05716
2.74248
2.37709
1.96753
1.52952
1.09057
0.690081
0.368972
0.154592
0.0439996
0.00619621
0.000433796
0.00142902
0.000412085
1.79416e-06
3.50051e-06
1.24076e-05
2.32303e-05
3.3732e-05
3.31816e-05
2.88399e-05
2.5785e-05
2.46408e-05
2.54076e-05
2.69592e-05
2.75329e-05
2.72673e-05
2.5818e-05
2.43386e-05
2.29814e-05
2.20302e-05
2.17489e-05
2.12702e-05
2.02865e-05
1.84639e-05
1.63388e-05
1.43671e-05
1.2682e-05
1.12334e-05
9.89557e-06
8.53784e-06
7.09229e-06
5.93149e-06
4.80593e-06
4.32013e-06
2.73268e-06
0.0686492
0.0528205
0.0401218
0.0342058
0.03264
0.0345931
0.042875
0.0623477
0.101606
0.17511
0.304989
0.519416
0.840197
1.27392
1.79585
2.35067
2.86303
3.23189
3.31903
3.02543
2.42611
1.68504
0.878996
0.379379
1.05136
1.75791
2.27517
2.59315
2.74549
2.76847
2.68455
2.50665
2.24367
1.90759
1.52007
1.11266
0.726439
0.405962
0.182625
0.0595267
0.011166
0.000356504
0.00155351
0.00076574
2.60279e-05
2.01173e-06
3.96199e-07
8.43224e-06
1.89479e-05
2.70551e-05
2.93619e-05
2.93223e-05
2.89345e-05
2.83112e-05
2.7674e-05
2.6228e-05
2.46178e-05
2.30269e-05
2.16804e-05
2.11425e-05
2.08825e-05
2.04435e-05
1.91234e-05
1.71754e-05
1.50775e-05
1.31324e-05
1.14653e-05
1.00592e-05
8.75011e-06
7.4006e-06
6.32088e-06
5.26064e-06
4.79719e-06
3.06926e-06
0.00266683
0.00181387
0.00119724
0.00095837
4.67672e-05
0.000148621
4.14929e-05
0.00138061
0.00221087
0.00419988
0.00385454
0.00458313
0.00657531
0.0236556
0.0664911
0.156074
0.321289
0.585479
0.945642
1.34649
1.6974
1.93263
2.02609