/*--------------------------------*- C++ -*----------------------------------*\
| =========                 |                                                 |
| \\      /  F ield         | OpenFOAM: The Open Source CFD Toolbox           |
|  \\    /   O peration     | Version:  2312                                  |
|   \\  /    A nd           | Website:  www.openfoam.com                      |
|    \\/     M anipulation  |                                                 |
\*---------------------------------------------------------------------------*/
FoamFile
{
    version     2.0;
    format      ascii;
    arch        "LSB;label=32;scalar=64";
    class       volVectorField;
    location    "100";
    object      momentError;
}
// * * * * * * * * * * * * * * * * * * * * * * * * * * * * * * * * * * * * * //

dimensions      [0 1 -2 0 0 0 0];

internalField   nonuniform List<vector> 
11040
(
(58.638 -196.794 -2.32251e-14)
(2.79773 -76.3055 5.5068e-14)
(31.628 247.88 2.92988e-13)
(143.248 346.581 1.21138e-13)
(176.809 235.077 -2.48056e-14)
(115.003 91.5373 1.71213e-14)
(53.7346 32.6343 -3.49839e-14)
(16.8242 26.2182 -1.75523e-13)
(-18.6898 0.267068 -1.02668e-13)
(17.2099 0.922978 1.49236e-13)
(42.8055 2.55053 1.27535e-13)
(44.3268 2.88281 1.32312e-13)
(41.7382 4.68668 -4.27805e-14)
(39.7105 5.44844 -6.66826e-14)
(36.333 4.67603 -3.1556e-14)
(31.6099 3.45646 4.62327e-15)
(27.0476 2.44368 -3.96159e-15)
(23.4118 1.69339 6.66766e-16)
(20.78 1.09927 -1.08394e-17)
(18.865 0.582101 -7.20645e-16)
(15.5353 0.144347 -3.84971e-15)
(14.4673 -0.287641 4.9506e-15)
(13.2928 -0.550623 7.07057e-15)
(13.7396 -0.691524 1.21274e-14)
(14.9554 -0.853276 7.31571e-15)
(10.7177 -0.844318 -1.48911e-14)
(9.86504 -0.920641 -4.98616e-15)
(9.05873 -0.967652 -9.75297e-15)
(8.48123 -1.00583 -9.05404e-16)
(7.82859 -1.01672 1.1134e-15)
(7.26228 -1.03758 1.44419e-14)
(6.62408 -1.04495 5.61734e-15)
(6.1006 -1.05389 8.65678e-15)
(5.49725 -1.02001 1.58814e-14)
(4.91257 -0.966747 -5.14025e-17)
(4.17219 -0.852631 6.99429e-15)
(3.43274 -0.514237 2.52404e-15)
(3.13105 1.13341 -5.96549e-16)
(8.8144 5.11446 1.57134e-18)
(26.3381 -1.87562 2.36551e-16)
(-0.444557 -5.24663 1.21364e-17)
(34.0527 -127.51 1.74738e-14)
(-50.3338 -207.716 4.87446e-14)
(-25.0125 -162.899 -1.18631e-13)
(137.225 -109.607 -3.12013e-13)
(266.633 -16.1685 -2.22964e-14)
(328.011 83.4553 -3.10859e-14)
(316.472 129.54 -2.43315e-13)
(260.341 120.96 -1.10063e-13)
(194.921 81.8982 6.97845e-14)
(158.702 55.6507 -6.499e-14)
(127.654 33.6933 -2.47552e-14)
(90.4568 20.3692 -1.15334e-14)
(61.7792 12.7206 1.12867e-13)
(44.8474 6.51863 3.96665e-14)
(35.4344 2.16398 1.55351e-14)
(29.7789 0.0244835 -1.81958e-14)
(26.6812 -0.718662 -9.84373e-15)
(25.101 -0.932883 -4.18802e-15)
(24.1514 -1.05826 2.29826e-15)
(22.5561 -1.08426 -5.90054e-16)
(22.0535 -1.17993 1.27851e-15)
(21.196 -1.39695 -6.07276e-15)
(19.5449 -1.3867 -4.4248e-15)
(20.5831 -1.3147 1.39534e-14)
(21.1996 -1.37677 1.18321e-14)
(16.0282 -1.46751 2.23839e-15)
(14.7562 -1.5649 -1.29338e-14)
(13.7701 -1.64743 2.67938e-15)
(12.9288 -1.69348 -2.4859e-15)
(12.1855 -1.70926 -7.70766e-15)
(11.4524 -1.72281 -1.95472e-16)
(10.7902 -1.76567 -8.52384e-15)
(10.1951 -1.81425 -5.43809e-15)
(9.63365 -1.81023 -3.48859e-15)
(9.06064 -1.73971 2.90048e-15)
(8.37894 -1.62591 -5.65541e-16)
(7.54975 -1.48152 -2.40355e-15)
(6.14786 -1.17982 6.39175e-16)
(1.40718 -0.71326 -5.73087e-18)
(-15.2703 -1.25475 -6.81687e-16)
(5.08353 -1.06972 1.22895e-15)
(15.3242 -110.193 1.15214e-14)
(-19.5402 -90.579 -6.5584e-14)
(-97.3184 -29.822 -7.94442e-14)
(-109.394 -78.0945 1.66159e-13)
(-101.124 -119.496 1.63529e-14)
(-54.5948 -83.8242 -1.27139e-13)
(20.4256 -22.1867 6.22959e-14)
(81.759 12.2393 1.38373e-13)
(93.2238 27.7106 -1.55659e-14)
(88.4305 34.4262 -1.95264e-14)
(92.5791 32.8597 1.94811e-14)
(93.7792 28.485 -4.58186e-14)
(91.2855 24.2796 -8.15102e-14)
(87.86 19.346 1.59633e-14)
(82.876 14.3646 5.5855e-15)
(74.8214 10.2018 1.78722e-14)
(64.3579 6.89885 4.35582e-15)
(52.8508 4.15938 6.35682e-15)
(41.6906 2.01663 1.07556e-14)
(32.0333 0.436912 -6.22541e-17)
(24.6655 -0.634201 1.44474e-16)
(21.0321 -1.45434 6.14674e-15)
(18.8782 -1.71272 1.68397e-15)
(19.074 -1.79167 -6.86214e-15)
(22.242 -1.64304 -1.21546e-14)
(17.2787 -1.80541 -5.64095e-15)
(16.1809 -1.84896 8.67519e-15)
(15.1191 -1.87613 -3.07011e-15)
(14.2234 -1.89515 3.83052e-15)
(13.3579 -1.86259 8.1795e-17)
(12.5827 -1.83498 -1.53454e-15)
(11.8575 -1.86276 8.08195e-15)
(11.2745 -1.95447 -4.62197e-15)
(10.7148 -1.99427 3.96437e-15)
(10.1931 -1.9207 1.27078e-15)
(9.5548 -1.74099 -5.21718e-15)
(8.80925 -1.54693 6.37795e-16)
(7.76167 -1.29185 5.29676e-16)
(6.93726 -1.03209 6.13434e-16)
(6.65104 -1.40026 -5.26912e-16)
(5.15126 -0.27189 -3.33242e-16)
(13.0102 -86.0897 -2.0603e-15)
(-8.27305 -79.0642 3.12648e-14)
(-20.8628 -56.9293 2.48529e-14)
(-21.2415 -63.665 -7.95361e-14)
(-44.5394 -88.6013 -2.97177e-14)
(-85.8191 -106.295 1.2482e-13)
(-109.472 -100.731 6.82181e-14)
(-104.019 -72.9354 -2.8583e-14)
(-83.6123 -32.8123 1.26671e-14)
(-61.2024 -0.931518 -2.69092e-14)
(-41.3413 9.39204 -5.42062e-14)
(-28.7102 7.2307 2.82073e-14)
(-21.7617 3.94421 3.06479e-14)
(-15.7921 1.57937 9.33284e-15)
(-9.11863 -0.141075 3.15219e-14)
(-2.02994 -0.846343 -7.99465e-15)
(5.3839 -0.496534 -1.93096e-14)
(12.7779 0.239292 -1.05299e-14)
(19.3898 0.826282 1.10782e-15)
(24.1532 1.0773 -4.61711e-15)
(26.6479 0.941208 4.18528e-16)
(28.2064 0.358038 -3.53902e-15)
(26.7992 -0.31497 -3.92774e-15)
(25.7556 -0.837579 -5.45247e-15)
(22.7766 -1.15748 -5.92786e-15)
(19.7602 -1.43846 -7.12859e-15)
(17.687 -1.6143 -1.17039e-14)
(15.9486 -1.75853 -6.1537e-16)
(14.7062 -1.90209 -2.67245e-15)
(13.7472 -1.96741 1.02087e-14)
(13.021 -1.96674 4.52013e-15)
(12.4098 -1.97791 3.19663e-15)
(11.9551 -2.07199 1.24556e-14)
(11.511 -2.16115 -8.4576e-16)
(11.0777 -2.11986 -1.24459e-15)
(10.4921 -1.88598 3.01509e-16)
(9.77189 -1.57353 -1.89506e-17)
(8.80571 -1.28333 2.0998e-16)
(8.1251 -1.08048 3.48351e-17)
(7.1866 -1.10904 -4.63914e-16)
(6.25402 -0.434183 -8.8856e-16)
(8.93117 -69.1245 2.07855e-15)
(-1.94217 -66.1011 -9.71299e-15)
(-16.8927 -49.7042 1.72189e-14)
(-22.8163 -38.2284 1.18478e-13)
(-24.136 -38.6058 2.00644e-14)
(-35.6376 -46.3651 -7.42647e-14)
(-57.5291 -48.0879 5.11092e-14)
(-75.188 -39.1816 -1.51027e-14)
(-78.9562 -22.2425 6.55442e-15)
(-69.8537 -5.139 6.97802e-14)
(-54.6235 3.21625 8.31092e-14)
(-41.4669 3.94446 1.95952e-14)
(-33.6467 2.99555 3.73174e-16)
(-29.07 2.05442 -1.68723e-14)
(-26.1314 0.817629 -2.2067e-14)
(-24.3978 -0.302091 -2.13677e-15)
(-23.1272 -0.797432 -1.51182e-14)
(-21.3692 -0.848188 1.15123e-14)
(-18.616 -0.761171 -1.81383e-15)
(-14.9985 -0.593748 -6.08377e-16)
(-10.584 -0.327882 2.89704e-16)
(-5.34108 -0.247877 4.62436e-15)
(-0.514378 -0.203615 5.55978e-15)
(4.17974 -0.311645 -8.6596e-15)
(9.5592 -0.400999 -1.208e-15)
(11.2384 -0.628617 1.61895e-14)
(12.9878 -0.8189 6.66907e-15)
(14.3701 -1.02668 6.12643e-15)
(15.1275 -1.29405 3.92259e-15)
(15.2835 -1.53473 -8.69511e-15)
(15.0156 -1.66542 -6.41287e-15)
(14.4477 -1.71735 3.70644e-18)
(13.7821 -1.81744 -5.3553e-15)
(13.0393 -1.98806 9.55604e-16)
(12.3264 -2.1027 -1.1663e-16)
(11.5318 -1.98524 1.36931e-15)
(10.6625 -1.63812 1.59797e-15)
(9.62289 -1.24453 -7.54679e-16)
(8.93689 -1.00669 -2.83409e-16)
(8.1274 -0.988552 5.04314e-16)
(6.99147 -0.470972 -6.04046e-16)
(6.53558 -54.5417 1.94596e-16)
(-0.448119 -52.9317 3.14964e-15)
(-9.48697 -44.1984 -4.93432e-15)
(-15.044 -39.6918 -5.0515e-14)
(-17.8456 -38.2738 1.30251e-14)
(-21.5686 -39.7291 4.12229e-14)
(-29.3653 -38.0973 -4.50015e-14)
(-38.3396 -31.7443 1.25969e-14)
(-43.4279 -21.5659 -3.65693e-14)
(-41.8923 -9.685 -8.31472e-15)
(-34.6041 -1.09344 -5.46486e-14)
(-26.0915 2.0925 -1.99516e-14)
(-20.1809 2.35515 1.43197e-14)
(-16.7218 1.68595 -8.79433e-15)
(-14.5962 0.631755 -2.58362e-15)
(-13.4881 -0.391998 3.79293e-14)
(-13.1699 -0.943549 6.69174e-15)
(-13.0998 -1.06958 1.48424e-15)
(-13.0431 -1.0238 -7.01491e-15)
(-12.9985 -0.927965 1.14752e-15)
(-12.9091 -0.625582 1.52893e-15)
(-13.5802 -0.289872 5.17009e-16)
(-13.4064 -0.0535937 -1.74758e-15)
(-12.5969 0.012837 8.64057e-16)
(-11.4889 -0.0522664 -6.07437e-15)
(-9.81563 -0.189617 -6.26564e-15)
(-7.97517 -0.228367 1.30801e-15)
(-5.80863 -0.287537 -3.26996e-15)
(-3.39355 -0.438174 -1.15853e-15)
(-0.798268 -0.66437 1.64138e-16)
(1.80824 -0.841354 3.40518e-15)
(4.2495 -0.931122 -1.83588e-15)
(6.4622 -1.03728 1.0465e-15)
(8.37598 -1.26208 -2.3643e-15)
(9.96627 -1.55315 -3.27053e-15)
(11.0486 -1.67996 1.44963e-15)
(11.5258 -1.4643 -9.33729e-16)
(11.2476 -1.01891 -1.17602e-15)
(10.7681 -0.675546 2.83302e-17)
(9.78266 -0.562888 9.40921e-17)
(8.64927 -0.482349 7.74469e-16)
(4.60575 -42.597 -8.53473e-16)
(-0.0176533 -42.1677 1.8304e-15)
(-5.86707 -37.1983 -3.08132e-16)
(-10.6941 -34.4703 -3.75343e-15)
(-14.5432 -32.0171 -1.5837e-15)
(-18.0364 -30.9482 1.36513e-14)
(-23.3515 -30.3423 1.72237e-15)
(-29.0499 -26.6532 -8.85456e-15)
(-32.8038 -19.0658 6.1402e-14)
(-32.7047 -9.41963 -5.91786e-15)
(-28.5061 -1.42079 -1.05178e-14)
(-22.2429 2.49747 8.58854e-15)
(-16.8918 3.32982 -1.06528e-14)
(-13.2711 2.85281 2.38676e-14)
(-10.8737 1.9805 -1.69716e-14)
(-9.34771 1.07004 -2.25685e-14)
(-8.51449 0.443457 -1.57766e-15)
(-8.00283 0.160455 -6.09805e-15)
(-7.52078 0.0265218 1.19094e-15)
(-7.07006 -0.0727369 -8.17547e-15)
(-6.76473 -0.126435 4.04345e-15)
(-7.50296 0.0858801 9.64975e-18)
(-7.91632 0.213354 -3.30511e-15)
(-8.18028 0.205757 -2.06448e-15)
(-8.33477 0.0994547 -1.84489e-15)
(-8.58147 -0.044475 -8.05546e-16)
(-8.84667 -0.0816925 2.54435e-15)
(-9.11841 -0.0188039 -3.06364e-15)
(-9.26601 0.00694413 -3.14635e-15)
(-9.20155 -0.0431551 2.18893e-15)
(-8.90108 -0.112748 3.54423e-15)
(-8.33179 -0.115213 3.58067e-15)
(-7.3905 -0.12029 1.88807e-15)
(-5.97043 -0.324582 -4.24223e-15)
(-4.0791 -0.436382 -4.3781e-15)
(-1.733 -0.665046 -9.63228e-16)
(0.778408 -0.691133 2.56097e-15)
(3.22 -0.410094 1.26855e-15)
(5.56671 -0.0581293 4.11371e-16)
(7.15522 0.231696 -1.24734e-16)
(8.94095 0.0873591 7.89156e-16)
(3.16612 -32.926 -2.41284e-16)
(-0.0996556 -33.1339 -1.56662e-15)
(-4.05299 -30.1096 1.82391e-15)
(-7.61976 -29.0104 4.94811e-15)
(-11.0192 -27.4898 2.09223e-14)
(-13.9429 -25.9054 1.43379e-14)
(-17.5113 -24.6091 -3.71931e-14)
(-22.1342 -22.553 -4.80227e-14)
(-25.8773 -18.2171 -2.84433e-14)
(-27.1894 -11.895 2.94991e-14)
(-25.4042 -5.65444 5.39286e-15)
(-21.2926 -1.45415 -5.46969e-14)
(-16.9126 0.481071 3.37773e-14)
(-13.4158 0.958761 2.47096e-14)
(-10.8997 0.762317 -4.16965e-14)
(-9.16829 0.290351 8.42602e-15)
(-8.07658 -0.138261 3.40803e-14)
(-7.3566 -0.352347 1.93249e-15)
(-6.71342 -0.431875 -5.8837e-15)
(-6.05926 -0.487715 -8.66965e-15)
(-5.4868 -0.512431 1.6412e-16)
(-5.47285 -0.46041 1.0851e-14)
(-5.50759 -0.305411 -6.30347e-15)
(-5.46938 -0.182211 -1.40463e-15)
(-5.35852 -0.147901 -1.0071e-15)
(-5.25777 -0.207376 -5.2536e-16)
(-5.23517 -0.304229 1.10288e-15)
(-5.40771 -0.271815 -2.73948e-15)
(-5.66924 -0.203462 1.84264e-15)
(-5.9605 -0.184872 4.24016e-15)
(-6.29619 -0.229556 -2.68494e-15)
(-6.7139 -0.245673 -6.26922e-15)
(-7.19715 -0.190527 -2.72789e-16)
(-7.75192 -0.144215 2.77644e-15)
(-8.16804 -0.112203 2.23077e-15)
(-8.16381 -0.196453 -3.8768e-17)
(-7.82 -0.234834 2.02743e-16)
(-6.98693 -0.0193963 1.75453e-16)
(-5.53577 0.348756 4.19331e-17)
(-3.94141 0.708291 -3.77634e-18)
(-0.0083504 0.872979 -2.33938e-16)
(2.08633 -25.1994 5.86856e-16)
(-0.264807 -25.7283 -2.82827e-16)
(-3.01046 -23.8837 1.53018e-15)
(-5.56612 -23.4867 1.23787e-15)
(-8.27368 -22.7419 -2.56294e-15)
(-10.8308 -21.5233 -7.15573e-16)
(-13.3123 -20.0239 1.43965e-14)
(-16.2912 -18.304 1.75942e-14)
(-19.3679 -15.6631 -1.32978e-14)
(-21.3231 -11.7232 1.94218e-14)
(-21.2944 -7.14508 5.0397e-14)
(-19.2324 -3.24275 -1.08567e-14)
(-16.2846 -0.766152 -3.5361e-14)
(-13.4415 0.354867 1.24746e-15)
(-11.1371 0.624318 6.89268e-15)
(-9.41664 0.444717 -9.04326e-15)
(-8.23228 0.13181 -1.55496e-14)
(-7.43474 -0.0913382 -2.37158e-15)
(-6.79235 -0.199037 1.49528e-14)
(-6.16607 -0.272172 -5.60814e-15)
(-5.5746 -0.350367 6.59897e-16)
(-5.48507 -0.370299 2.09572e-17)
(-5.43977 -0.276683 4.99603e-16)
(-5.35211 -0.143238 1.58025e-16)
(-5.17521 -0.0635432 -2.98685e-15)
(-4.93652 -0.0900396 -3.00859e-15)
(-4.73142 -0.159687 4.16386e-15)
(-4.63306 -0.191911 -8.08478e-16)
(-4.61689 -0.167229 -1.99987e-15)
(-4.62725 -0.14499 -2.9456e-15)
(-4.64974 -0.169512 8.00469e-16)
(-4.72979 -0.223681 2.14556e-15)
(-4.92997 -0.204774 -1.00413e-15)
(-5.24947 -0.0281887 -5.74936e-16)
(-5.60637 -0.0508039 -6.27177e-18)
(-6.01998 -0.0521709 1.84105e-15)
(-6.50758 -0.0711241 -1.46292e-16)
(-7.0376 -0.0122596 -5.618e-16)
(-7.5715 0.206824 -1.23577e-15)
(-8.15727 0.453355 2.51924e-16)
(-7.08557 1.0336 -2.47152e-16)
(1.31871 -19.0911 2.9832e-17)
(-0.393354 -19.7457 -4.57406e-16)
(-2.33765 -18.6351 -2.13566e-16)
(-4.16903 -18.5779 -4.75208e-15)
(-6.15954 -18.3004 -3.92379e-15)
(-8.16427 -17.611 1.67023e-15)
(-10.151 -16.6003 1.06841e-14)
(-12.14 -15.2144 -2.13445e-14)
(-14.2186 -13.3345 -2.86683e-16)
(-16.0086 -10.8376 3.20181e-14)
(-16.8236 -7.86936 -1.70387e-14)
(-16.1903 -4.92343 3.16995e-14)
(-14.5806 -2.61166 -1.12072e-15)
(-12.6014 -1.19587 -1.38479e-14)
(-10.7286 -0.521192 8.42321e-15)
(-9.1701 -0.332657 -2.42784e-14)
(-7.98904 -0.387279 1.2111e-14)
(-7.14703 -0.48381 4.47868e-15)
(-6.50641 -0.521462 -1.06235e-15)
(-5.92987 -0.522878 1.35122e-15)
(-5.38566 -0.536709 -4.80516e-15)
(-5.29706 -0.549534 -1.99515e-15)
(-5.25033 -0.483998 7.14418e-15)
(-5.19219 -0.353623 -2.00695e-15)
(-5.0851 -0.225677 -2.5918e-16)
(-4.91723 -0.173975 1.16834e-15)
(-4.73828 -0.188976 -5.92621e-16)
(-4.62243 -0.221872 -1.02432e-15)
(-4.58173 -0.226294 9.74733e-16)
(-4.5804 -0.215085 -1.15442e-15)
(-4.57584 -0.223625 1.36849e-15)
(-4.56422 -0.254537 -1.23875e-16)
(-4.57919 -0.26333 2.66194e-15)
(-4.62473 -0.207192 4.06205e-16)
(-4.71322 -0.106556 4.87222e-16)
(-4.80326 -0.0324937 1.47232e-16)
(-4.90232 -0.0183527 -2.76968e-16)
(-5.04982 -0.0375036 1.35263e-15)
(-5.43956 0.0926172 3.34064e-16)
(-5.9935 0.320216 -1.48505e-16)
(-6.57711 0.832275 1.09591e-16)
(0.79387 -14.3376 -5.13393e-16)
(-0.454274 -14.9993 -3.56909e-16)
(-1.84547 -14.3439 -7.46515e-17)
(-3.16653 -14.4405 -4.99052e-15)
(-4.60036 -14.3872 4.17907e-15)
(-6.08566 -14.04 6.15364e-15)
(-7.59211 -13.4291 -1.17784e-14)
(-9.10217 -12.5351 5.86006e-15)
(-10.5431 -11.2522 4.44775e-16)
(-11.8605 -9.61902 -3.41664e-14)
(-12.8059 -7.68025 -1.86724e-14)
(-12.9812 -5.61732 -5.95071e-15)
(-12.3775 -3.71396 4.73505e-15)
(-11.2552 -2.25511 -1.40142e-14)
(-9.94823 -1.31432 -7.09213e-15)
(-8.69672 -0.809196 2.95315e-14)
(-7.6341 -0.605985 -1.0839e-14)
(-6.80132 -0.546758 2.54719e-15)
(-6.15198 -0.508966 2.44091e-14)
(-5.59861 -0.460025 -1.07425e-14)
(-5.08353 -0.424888 -4.54807e-16)
(-4.97499 -0.401766 1.49805e-15)
(-4.89651 -0.35891 -2.75798e-15)
(-4.82671 -0.260517 5.62277e-15)
(-4.75174 -0.145086 -2.89229e-15)
(-4.64803 -0.0768259 1.74975e-15)
(-4.5205 -0.0642571 4.49659e-15)
(-4.42445 -0.103313 -1.19826e-15)
(-4.38906 -0.145568 -2.74933e-17)
(-4.40412 -0.169516 -4.47579e-16)
(-4.43282 -0.185241 -1.78331e-15)
(-4.44934 -0.206204 -1.19459e-15)
(-4.46593 -0.222667 -1.61654e-15)
(-4.49201 -0.207816 5.98143e-16)
(-4.56223 -0.154039 1.59347e-15)
(-4.63057 -0.0882065 -1.42583e-15)
(-4.65589 -0.0450881 -9.09488e-16)
(-4.57855 -0.0218782 -8.93763e-16)
(-4.60272 0.0511863 -4.09394e-17)
(-4.65433 0.214544 -4.18496e-16)
(-4.94851 0.514452 1.35127e-16)
(0.446609 -10.686 7.4359e-17)
(-0.466932 -11.2915 1.54351e-16)
(-1.46724 -10.9188 5.56551e-17)
(-2.42212 -11.078 -1.33318e-16)
(-3.44841 -11.1359 6.61882e-17)
(-4.51621 -10.999 -5.67884e-16)
(-5.61823 -10.6804 2.59466e-15)
(-6.73302 -10.1601 3.5221e-15)
(-7.81574 -9.38854 2.52652e-14)
(-8.79339 -8.3369 5.97866e-15)
(-9.57535 -7.06787 -5.07985e-14)
(-9.98385 -5.65644 3.15129e-14)
(-9.99055 -4.27232 3.5562e-14)
(-9.54254 -3.05429 1.01948e-14)
(-8.80096 -2.10482 -1.37603e-14)
(-7.94451 -1.45441 -7.49827e-15)
(-7.10817 -1.0623 4.88522e-15)
(-6.37001 -0.836 -1.89277e-14)
(-5.75133 -0.688974 8.6183e-15)
(-5.22245 -0.565936 9.04136e-16)
(-4.74054 -0.466929 -1.06116e-14)
(-4.6288 -0.398139 5.93403e-16)
(-4.53072 -0.358199 5.93519e-15)
(-4.44414 -0.297135 3.44486e-15)
(-4.38153 -0.229074 -9.63548e-15)
(-4.31988 -0.185977 1.30758e-15)
(-4.23989 -0.171819 4.29594e-15)
(-4.17053 -0.204532 -3.98957e-15)
(-4.13131 -0.250697 -1.63284e-15)
(-4.13104 -0.283964 5.44136e-15)
(-4.15226 -0.296776 -1.93033e-15)
(-4.17221 -0.29978 -5.56842e-16)
(-4.18888 -0.302467 1.10235e-15)
(-4.20531 -0.295873 -4.08535e-16)
(-4.26572 -0.267311 -6.54847e-16)
(-4.34491 -0.210522 -2.5066e-16)
(-4.39963 -0.142903 4.7292e-17)
(-4.33697 -0.0825095 5.40479e-16)
(-4.30697 -0.0260557 -8.95474e-17)
(-4.26736 0.0571031 3.92167e-16)
(-4.34935 0.201696 -1.23651e-16)
(0.222435 -7.91366 -1.86472e-17)
(-0.448001 -8.43464 -6.63332e-17)
(-1.17067 -8.2313 2.05291e-16)
(-1.86366 -8.40209 7.52968e-16)
(-2.59863 -8.50251 -4.93974e-16)
(-3.35985 -8.4726 2.94515e-16)
(-4.14943 -8.32381 -1.31868e-14)
(-4.95744 -8.04101 -1.19921e-14)
(-5.75389 -7.59401 4.61239e-15)
(-6.50728 -6.97273 2.02359e-15)
(-7.14174 -6.17171 4.34954e-15)
(-7.54439 -5.2305 -5.09641e-15)
(-7.75244 -4.25647 4.7521e-16)
(-7.72442 -3.34479 -1.4411e-14)
(-7.42652 -2.53659 -8.80433e-15)
(-6.94749 -1.87906 8.5649e-15)
(-6.38292 -1.38569 -1.03465e-14)
(-5.8104 -1.03611 2.13264e-14)
(-5.27919 -0.788157 -1.54983e-15)
(-4.80461 -0.602641 -8.69076e-16)
(-4.37303 -0.469008 5.28838e-16)
(-4.27746 -0.377359 7.56022e-16)
(-4.18558 -0.346808 -4.55118e-16)
(-4.1031 -0.320813 -1.55854e-15)
(-4.04457 -0.29836 1.87602e-15)
(-4.18097 -0.293209 8.58335e-15)
(-4.02372 -0.285337 5.05842e-16)
(-3.92551 -0.297104 -2.56437e-15)
(-3.88697 -0.322853 5.71279e-15)
(-3.86954 -0.341767 -1.93638e-15)
(-3.87203 -0.344945 1.71432e-15)
(-3.88312 -0.336358 7.52111e-16)
(-3.895 -0.323961 -4.2093e-15)
(-3.89601 -0.30761 1.49803e-15)
(-3.92318 -0.278763 -3.64645e-16)
(-3.96812 -0.226275 -3.71855e-16)
(-4.00962 -0.154467 -7.94295e-18)
(-3.9654 -0.0841069 -2.95683e-16)
(-3.95279 -0.0352892 1.84007e-17)
(-3.92761 -0.00603087 -1.69998e-17)
(-3.98487 0.0473855 1.19882e-16)
(0.0846421 -5.82204 1.72581e-16)
(-0.408535 -6.25212 2.68621e-16)
(-0.932237 -6.15144 -8.45957e-16)
(-1.43719 -6.31169 3.02609e-17)
(-1.96578 -6.42297 1.97402e-15)
(-2.50826 -6.44775 1.29089e-15)
(-3.06961 -6.39788 5.25517e-15)
(-3.64682 -6.26407 6.23192e-15)
(-4.22357 -6.02643 -4.59153e-15)
(-4.78396 -5.67939 -2.05339e-14)
(-5.2923 -5.21695 1.55087e-14)
(-5.6583 -4.61888 3.45245e-15)
(-5.89617 -3.9585 -3.53306e-14)
(-6.00623 -3.29919 1.65064e-14)
(-5.98224 -2.68433 2.73129e-14)
(-5.79135 -2.12747 -2.73564e-15)
(-5.48065 -1.65166 2.56345e-15)
(-5.10521 -1.27309 -2.902e-15)
(-4.71171 -0.985383 1.13557e-15)
(-4.33354 -0.772543 1.46661e-14)
(-3.9772 -0.623401 -5.95076e-15)
(-3.92086 -0.535652 -1.3254e-14)
(-3.85496 -0.509171 -6.70439e-15)
(-3.78796 -0.488603 6.61319e-15)
(-3.74589 -0.475958 7.83197e-15)
(-3.70803 -0.461033 -1.44438e-15)
(-3.68227 -0.452058 -9.5874e-17)
(-3.64505 -0.430348 1.66166e-16)
(-3.61088 -0.41783 1.03826e-16)
(-3.58506 -0.4049 -3.39162e-16)
(-3.57288 -0.385685 -1.13846e-15)
(-3.57186 -0.358834 1.07986e-15)
(-3.57477 -0.326014 1.51944e-15)
(-3.56297 -0.288644 -9.88857e-16)
(-3.56403 -0.245897 -4.14731e-16)
(-3.57867 -0.194292 -2.00514e-16)
(-3.6047 -0.134434 1.66615e-15)
(-3.57665 -0.0763597 -8.51347e-16)
(-3.58513 -0.0329424 7.37895e-18)
(-3.57128 -0.01068 4.60588e-16)
(-3.60276 0.015862 -7.42258e-17)
(0.00447268 -4.265 -1.69838e-16)
(-0.358529 -4.60246 3.99535e-16)
(-0.738064 -4.55929 1.78611e-16)
(-1.10674 -4.69879 -1.459e-15)
(-1.48883 -4.80514 1.95756e-16)
(-1.87751 -4.85395 -9.5084e-16)
(-2.27752 -4.85575 2.76491e-15)
(-2.68891 -4.80544 4.20346e-15)
(-3.10304 -4.69006 2.72696e-15)
(-3.51267 -4.50643 4.7548e-15)
(-3.89971 -4.24935 -1.93355e-14)
(-4.21177 -3.89755 1.70609e-14)
(-4.44549 -3.47575 2.10472e-14)
(-4.58869 -3.02446 -1.55346e-14)
(-4.64887 -2.57792 -7.95389e-15)
(-4.63566 -2.16393 -1.35494e-14)
(-4.51835 -1.78408 9.64317e-16)
(-4.32224 -1.4526 2.59927e-16)
(-4.07906 -1.1797 3.32363e-15)
(-3.81701 -0.963799 -2.51861e-15)
(-3.55116 -0.800664 -9.90445e-16)
(-3.53985 -0.708659 4.08607e-15)
(-3.50192 -0.661552 1.46063e-15)
(-3.45561 -0.615552 -7.74208e-15)
(-3.41289 -0.573269 1.45434e-16)
(-3.37925 -0.531192 4.83189e-15)
(-3.35182 -0.494488 -1.40856e-15)
(-3.31203 -0.442287 -7.79024e-15)
(-3.28184 -0.39954 5.10138e-15)
(-3.2555 -0.360067 -2.05126e-15)
(-3.23709 -0.322422 3.04808e-15)
(-3.22686 -0.283575 -1.30848e-15)
(-3.22251 -0.243007 -2.28264e-15)
(-3.20694 -0.201196 1.66937e-15)
(-3.20236 -0.160534 2.23784e-15)
(-3.20964 -0.120858 -4.41847e-16)
(-3.23216 -0.0812 -8.56885e-16)
(-3.21509 -0.0409211 4.91192e-16)
(-3.22969 -0.00210659 -4.17099e-16)
(-3.21717 0.0300775 -5.93854e-17)
(-3.22713 0.055144 -1.41965e-16)
(-0.0377456 -3.11087 -7.899e-17)
(-0.305818 -3.37707 2.20067e-17)
(-0.581799 -3.36404 3.30405e-16)
(-0.851418 -3.47752 1.21255e-15)
(-1.12864 -3.56948 -4.35175e-17)
(-1.40863 -3.62414 7.63337e-16)
(-1.69526 -3.65022 7.35542e-17)
(-1.98949 -3.6451 -5.31369e-15)
(-2.28673 -3.60028 -1.71184e-15)
(-2.58393 -3.51402 2.75605e-15)
(-2.87219 -3.38274 -1.09203e-14)
(-3.12011 -3.18815 -7.52978e-15)
(-3.32837 -2.94438 1.66746e-14)
(-3.48073 -2.66122 -4.10883e-15)
(-3.57233 -2.36066 1.85813e-14)
(-3.60821 -2.06347 7.21766e-15)
(-3.60652 -1.78789 -1.2811e-14)
(-3.53881 -1.52942 7.11222e-15)
(-3.41695 -1.29343 -1.26772e-14)
(-3.25905 -1.08577 2.02397e-15)
(-3.07734 -0.910655 4.87515e-17)
(-3.10319 -0.804905 1.76807e-15)
(-3.09064 -0.734514 -6.29604e-15)
(-3.06269 -0.660519 -2.95898e-15)
(-3.03295 -0.592801 1.02979e-14)
(-3.00197 -0.531227 -9.0969e-16)
(-3.07126 -0.486836 -2.86673e-15)
(-2.98538 -0.424646 -2.0688e-15)
(-2.92758 -0.367149 6.64857e-15)
(-2.90778 -0.324691 8.55173e-16)
(-2.89395 -0.287133 -3.80078e-15)
(-2.88568 -0.252411 4.47694e-16)
(-2.88295 -0.220127 3.27247e-16)
(-2.87306 -0.188692 -4.04736e-16)
(-2.87289 -0.159738 -1.164e-15)
(-2.8802 -0.131436 7.37402e-16)
(-2.89601 -0.103167 8.41705e-16)
(-2.87571 -0.0719589 -2.42174e-16)
(-2.88215 -0.0394889 2.10262e-16)
(-2.86928 -0.00885593 2.10408e-16)
(-2.88726 0.00891223 -2.11285e-16)
(-0.0542677 -2.24667 1.02733e-16)
(-0.251555 -2.46035 -4.32834e-16)
(-0.453143 -2.46838 -1.13266e-16)
(-0.651267 -2.56074 -1.11029e-16)
(-0.853736 -2.63766 2.78384e-15)
(-1.05719 -2.68988 -1.10443e-15)
(-1.26454 -2.72473 -8.85167e-16)
(-1.47683 -2.74091 5.47446e-15)
(-1.69163 -2.7329 1.0397e-15)
(-1.90781 -2.69982 -8.4022e-15)
(-2.12112 -2.63928 -2.53704e-15)
(-2.31276 -2.53739 1.358e-14)
(-2.48415 -2.4018 -9.3078e-15)
(-2.62564 -2.23582 -3.23135e-15)
(-2.72942 -2.0446 1.17236e-14)
(-2.79069 -1.8392 -3.61444e-15)
(-2.81552 -1.63433 9.38645e-15)
(-2.81406 -1.43862 -4.85346e-15)
(-2.77203 -1.25043 -2.24454e-14)
(-2.69276 -1.07202 2.51644e-14)
(-2.5826 -0.909465 1.67286e-15)
(-2.63443 -0.807359 -1.43589e-14)
(-2.64226 -0.732374 2.67545e-15)
(-2.63712 -0.656929 -2.31791e-16)
(-2.62643 -0.589515 5.18503e-15)
(-2.61569 -0.530505 1.34976e-15)
(-2.60206 -0.478364 -1.9297e-14)
(-2.59528 -0.439511 -5.34424e-15)
(-2.57988 -0.394086 6.93175e-15)
(-2.57287 -0.360973 5.15172e-16)
(-2.57007 -0.33296 9.59091e-16)
(-2.57086 -0.308772 -2.55943e-15)
(-2.57471 -0.287022 4.2384e-16)
(-2.57075 -0.266147 -1.36445e-17)
(-2.57309 -0.246744 -1.43647e-18)
(-2.57889 -0.227982 9.91749e-17)
(-2.58931 -0.209449 1.33297e-16)
(-2.57122 -0.191664 7.01469e-19)
(-2.58413 -0.179154 -6.54353e-17)
(-2.58927 -0.170118 -1.72385e-16)
(-2.63743 -0.174672 1.16545e-16)
(-0.0630016 -1.76688 2.02267e-16)
(-0.2175 -1.91516 -4.23855e-16)
(-0.371751 -1.92572 5.34287e-16)
(-0.523016 -1.99073 -1.03222e-15)
(-0.675435 -2.04401 6.69739e-16)
(-0.826953 -2.08103 -3.35998e-15)
(-0.980079 -2.10765 -7.39115e-15)
(-1.13565 -2.12319 6.49416e-15)
(-1.29241 -2.12403 1.32924e-14)
(-1.45016 -2.10996 -5.61656e-15)
(-1.60693 -2.07945 -7.06743e-15)
(-1.75117 -2.0224 9.42891e-16)
(-1.88445 -1.94333 3.10727e-15)
(-2.00102 -1.84283 -1.25143e-15)
(-2.09582 -1.72279 -1.23066e-16)
(-2.16419 -1.58658 -6.74268e-16)
(-2.20294 -1.43908 1.03307e-14)
(-2.21804 -1.29234 -2.23467e-15)
(-2.21081 -1.14869 -1.6092e-14)
(-2.18269 -1.01139 1.13874e-14)
(-2.12539 -0.881386 5.70513e-15)
(-2.19624 -0.804652 3.98094e-15)
(-2.22588 -0.744815 -1.04481e-14)
(-2.24197 -0.6849 1.06615e-15)
(-2.2531 -0.632493 1.55811e-16)
(-2.25978 -0.587166 3.18408e-17)
(-2.26692 -0.548999 -8.29825e-18)
(-2.27945 -0.524489 -2.45677e-16)
(-2.27527 -0.489525 1.53951e-17)
(-2.28154 -0.466934 1.16968e-16)
(-2.2897 -0.447635 -2.46894e-16)
(-2.29867 -0.431228 1.18397e-15)
(-2.30823 -0.416551 6.78011e-16)
(-2.31021 -0.402788 -1.96475e-15)
(-2.31837 -0.392126 4.27828e-16)
(-2.33195 -0.384617 -5.03887e-16)
(-2.35251 -0.379533 -3.04297e-16)
(-2.3524 -0.375851 7.45665e-16)
(-2.38556 -0.381831 -1.37639e-16)
(-2.41105 -0.387129 -4.6763e-18)
(-2.47389 -0.40307 -1.17878e-17)
(-0.0645053 -1.43469 -1.04983e-17)
(-0.189185 -1.53644 2.10341e-16)
(-0.310808 -1.54529 4.24639e-16)
(-0.429883 -1.5904 -1.93754e-15)
(-0.547973 -1.62645 -1.58376e-16)
(-0.664311 -1.65148 -1.87273e-15)
(-0.780776 -1.67033 1.75001e-15)
(-0.898337 -1.68239 -3.91524e-16)
(-1.0161 -1.68553 -5.41061e-15)
(-1.13442 -1.6797 2.82584e-15)
(-1.25234 -1.6642 1.29339e-14)
(-1.36255 -1.6316 4.03476e-16)
(-1.46641 -1.58501 -1.06633e-14)
(-1.56057 -1.52407 2.22036e-15)
(-1.64161 -1.44931 -7.29605e-15)
(-1.70635 -1.36187 -1.54549e-14)
(-1.7522 -1.26434 7.70418e-15)
(-1.77762 -1.15967 1.16818e-14)
(-1.78398 -1.05345 4.71451e-15)
(-1.77277 -0.948596 -1.98234e-15)
(-1.74834 -0.850719 -1.04828e-14)
(-1.82839 -0.802305 8.966e-15)
(-1.87049 -0.759494 -1.80266e-15)
(-1.90296 -0.715843 1.70298e-16)
(-1.92921 -0.676373 4.08199e-16)
(-1.95185 -0.642233 -2.76736e-15)
(-1.97124 -0.613761 -2.13614e-15)
(-2.02912 -0.599169 6.85352e-15)
(-2.02867 -0.577124 -1.11539e-15)
(-2.02618 -0.551838 -5.23565e-15)
(-2.04272 -0.53771 4.78204e-15)
(-2.0607 -0.525966 -2.63825e-15)
(-2.07942 -0.516152 -8.80908e-18)
(-2.09239 -0.507433 3.07375e-15)
(-2.11268 -0.502644 -3.70631e-15)
(-2.13953 -0.501316 2.11582e-15)
(-2.17331 -0.501506 1.21369e-15)
(-2.18699 -0.498553 -1.66771e-15)
(-2.22937 -0.503574 6.93342e-16)
(-2.25973 -0.502246 -1.96964e-16)
(-2.31437 -0.509458 2.4872e-16)
(-0.0621899 -1.17809 -9.21475e-17)
(-0.1646 -1.24995 4.28926e-16)
(-0.262478 -1.25662 -1.64854e-19)
(-0.35801 -1.28846 -8.00137e-16)
(-0.451616 -1.31313 2.39039e-16)
(-0.543043 -1.33025 -4.78347e-16)
(-0.634016 -1.34365 -3.66554e-16)
(-0.725252 -1.35309 3.20771e-15)
(-0.816369 -1.35703 -1.41323e-15)
(-0.907692 -1.35583 -5.36553e-15)
(-0.998994 -1.34886 3.74998e-15)
(-1.08525 -1.33094 6.58092e-15)
(-1.16776 -1.30384 -5.8211e-15)
(-1.24425 -1.26724 8.88715e-15)
(-1.31267 -1.2207 3.24556e-15)
(-1.37055 -1.16478 -1.27521e-14)
(-1.4161 -1.10021 -1.37287e-14)
(-1.44766 -1.02892 1.12532e-14)
(-1.46397 -0.952224 -8.67492e-16)
(-1.4655 -0.872921 8.44427e-16)
(-1.45328 -0.796862 -7.97294e-16)
(-1.52739 -0.766174 1.32115e-16)
(-1.57694 -0.738559 -1.19328e-16)
(-1.61637 -0.707991 2.64536e-16)
(-1.65226 -0.679748 7.50383e-16)
(-1.6862 -0.655425 4.08296e-16)
(-1.71733 -0.634086 -3.18308e-16)
(-1.74613 -0.616366 1.34052e-15)
(-1.78354 -0.609 8.1045e-16)
(-1.80094 -0.58718 -3.083e-15)
(-1.82651 -0.576036 -1.05701e-16)
(-1.85312 -0.566281 2.10992e-15)
(-1.8806 -0.557903 -7.23202e-16)
(-1.90274 -0.548799 -3.52285e-15)
(-1.93037 -0.541743 2.85538e-15)
(-1.96227 -0.535531 3.61168e-16)
(-1.99847 -0.528995 6.54667e-17)
(-2.01387 -0.515369 -1.26242e-15)
(-2.05263 -0.507267 5.30708e-16)
(-2.08024 -0.49147 -1.59119e-16)
(-2.12073 -0.478889 2.4076e-16)
(-0.0580214 -0.975769 2.6513e-18)
(-0.143134 -1.02732 -8.56596e-17)
(-0.22342 -1.03221 -5.15808e-16)
(-0.301127 -1.05487 1.15832e-15)
(-0.376746 -1.07175 4.41913e-17)
(-0.44991 -1.08335 -7.11094e-16)
(-0.522491 -1.09269 -7.12263e-16)
(-0.594822 -1.09981 1.47041e-15)
(-0.666952 -1.10359 -2.47508e-15)
(-0.739135 -1.10451 -1.31245e-15)
(-0.811459 -1.1021 -1.50654e-15)
(-0.880423 -1.0925 -3.79862e-16)
(-0.947107 -1.07703 5.16383e-15)
(-1.01003 -1.05505 4.89446e-15)
(-1.06775 -1.0262 1.71892e-15)
(-1.11856 -0.990166 -7.41074e-15)
(-1.16105 -0.947492 1.26186e-15)
(-1.1938 -0.898575 1.52043e-15)
(-1.21578 -0.844689 1.48179e-16)
(-1.22681 -0.78682 -8.80254e-16)
(-1.22498 -0.727608 7.64008e-16)
(-1.29282 -0.708164 -1.68327e-16)
(-1.33898 -0.688541 1.95199e-16)
(-1.38011 -0.667099 -1.40231e-15)
(-1.4198 -0.648266 2.2667e-15)
(-1.45897 -0.631173 3.03262e-15)
(-1.49682 -0.615933 -8.04637e-15)
(-1.53141 -0.601832 -6.09634e-16)
(-1.57798 -0.592878 5.07713e-15)
(-1.61168 -0.584527 -2.38568e-15)
(-1.628 -0.562375 5.86692e-16)
(-1.6581 -0.549938 2.6533e-15)
(-1.68878 -0.537394 -9.65996e-16)
(-1.71334 -0.522502 1.04907e-15)
(-1.7409 -0.507595 -1.81987e-15)
(-1.77073 -0.492062 -4.77866e-17)
(-1.80361 -0.475545 -3.4039e-16)
(-1.8172 -0.451667 1.02497e-15)
(-1.8487 -0.430453 -1.61082e-16)
(-1.87214 -0.404013 -5.86476e-17)
(-1.89539 -0.371641 -2.07835e-17)
(-0.0530925 -0.813346 -3.62465e-17)
(-0.124597 -0.850829 -1.70361e-17)
(-0.191258 -0.854215 -3.78073e-16)
(-0.255366 -0.870481 3.51442e-16)
(-0.31724 -0.881978 7.30045e-16)
(-0.37673 -0.889672 1.42326e-16)
(-0.435486 -0.896046 -1.12527e-15)
(-0.49387 -0.90125 2.21858e-15)
(-0.551918 -0.904519 -5.28111e-15)
(-0.610087 -0.906316 3.46997e-15)
(-0.668383 -0.906371 8.67304e-15)
(-0.72461 -0.901753 -6.12525e-15)
(-0.779306 -0.893408 -4.22913e-15)
(-0.83179 -0.880598 4.65508e-15)
(-0.880729 -0.863063 9.58593e-15)
(-0.925202 -0.840058 1.38293e-15)
(-0.963724 -0.811968 -4.70151e-15)
(-0.995577 -0.778488 -1.15153e-14)
(-1.01939 -0.74062 4.34666e-15)
(-1.03529 -0.698361 4.43516e-15)
(-1.04117 -0.654036 2.60458e-15)
(-1.10335 -0.642133 4.05443e-15)
(-1.14797 -0.628286 -9.81417e-15)
(-1.1896 -0.613353 -5.38486e-16)
(-1.23009 -0.5996 4.63508e-15)
(-1.27019 -0.586937 -3.44788e-15)
(-1.30863 -0.574274 -1.28605e-15)
(-1.34409 -0.560956 4.4702e-15)
(-1.37762 -0.547815 -2.2516e-15)
(-1.43774 -0.551545 -4.60624e-15)
(-1.44181 -0.519885 7.35729e-17)
(-1.47021 -0.504675 1.68342e-15)
(-1.49901 -0.488819 -1.26003e-16)