/*--------------------------------*- C++ -*----------------------------------*\
| =========                 |                                                 |
| \\      /  F ield         | OpenFOAM: The Open Source CFD Toolbox           |
|  \\    /   O peration     | Version:  2312                                  |
|   \\  /    A nd           | Website:  www.openfoam.com                      |
|    \\/     M anipulation  |                                                 |
\*---------------------------------------------------------------------------*/
FoamFile
{
    version     2.0;
    format      ascii;
    arch        "LSB;label=32;scalar=64";
    class       volScalarField;
    location    "100";
    object      nut;
}
// * * * * * * * * * * * * * * * * * * * * * * * * * * * * * * * * * * * * * //

dimensions      [0 2 -1 0 0 0 0];

internalField   nonuniform List<scalar> 
11040
(
2.64708e-05
5.94066e-05
0.000107267
0.000184139
0.000294295
0.000721378
0.0011612
0.00125392
0.00134964
0.00145659
0.00156705
0.00167932
0.00177851
0.00185303
0.00190348
0.00193671
0.00195845
0.00197109
0.00197394
0.00196562
0.00194312
0.00191191
0.00188104
0.00185242
0.00182625
0.00179921
0.00177008
0.00173839
0.00170369
0.00166538
0.00162282
0.00157512
0.00152129
0.00145981
0.00138894
0.00130736
0.00121267
0.001103
0.000939946
0.000684525
0.000635518
5.34224e-06
5.84692e-06
1.95827e-05
7.41387e-05
0.000149929
0.000322222
0.000625234
0.000996306
0.0014415
0.00193079
0.00240195
0.00280406
0.00310011
0.00328362
0.00337782
0.00341779
0.00343281
0.00343646
0.00342797
0.00340158
0.00336161
0.00331929
0.00328272
0.00324507
0.00321401
0.00318622
0.00316031
0.0031359
0.00311325
0.00309299
0.00307552
0.00306085
0.00304859
0.00303775
0.00302726
0.00301545
0.00300163
0.00297922
0.00294755
0.00283539
0.00323268
6.36264e-06
6.61702e-06
6.10701e-06
7.82257e-06
1.65638e-05
4.34245e-05
0.000114475
0.000219802
0.000330326
0.000446845
0.0006009
0.000825587
0.00114024
0.00154347
0.00201381
0.00251266
0.00299239
0.00340852
0.00373364
0.0039629
0.00411432
0.00421549
0.00429566
0.00435551
0.00441604
0.00447007
0.00451521
0.00455216
0.004583
0.00460996
0.00463466
0.00465778
0.00467947
0.00469904
0.00471588
0.00472908
0.00474023
0.00474447
0.00475631
0.00471153
0.00488696
6.15612e-06
6.19777e-06
6.24066e-06
5.71839e-06
5.04283e-06
3.75175e-06
2.29516e-06
2.10488e-06
2.90061e-06
4.80434e-06
8.81134e-06
1.8317e-05
4.42764e-05
0.000103037
0.000202544
0.00036125
0.000605626
0.000952113
0.00140166
0.00193543
0.00252026
0.00307884
0.00355527
0.00394016
0.0042488
0.00449778
0.0047033
0.00487889
0.00503478
0.00517781
0.00531197
0.00543914
0.00556003
0.00567482
0.00578333
0.00588452
0.00597947
0.00606453
0.00615325
0.0062094
0.00630086
6.15182e-06
6.16008e-06
6.17929e-06
6.18479e-06
5.99505e-06
5.40699e-06
4.10539e-06
2.50334e-06
1.36521e-06
8.06937e-07
5.5474e-07
3.9476e-07
2.36055e-07
8.92637e-08
1.37059e-08
6.64676e-10
2.39295e-09
7.65812e-07
3.87654e-05
0.000168482
0.000369924
0.000663221
0.00102629
0.00143899
0.00188806
0.00235794
0.00283059
0.00329145
0.00373027
0.00414113
0.00452201
0.00487411
0.00520074
0.00550748
0.00579914
0.00607835
0.00634722
0.00660618
0.00685967
0.0070957
0.00729194
6.12209e-06
6.12389e-06
6.12885e-06
6.13372e-06
6.14737e-06
6.14979e-06
6.08213e-06
5.83298e-06
5.4408e-06
5.05683e-06
4.7523e-06
4.48973e-06
4.19759e-06
3.79042e-06
3.15263e-06
2.19038e-06
1.17579e-06
1.72029e-07
7.41128e-07
9.96438e-06
4.4114e-06
2.96963e-06
2.96841e-06
5.37139e-05
0.000165872
0.000308481
0.00049571
0.000736513
0.00103415
0.00138873
0.00179794
0.00225809
0.00276332
0.00330843
0.00388512
0.00448175
0.00508488
0.00568925
0.00628093
0.00684688
0.007407
6.1146e-06
6.11815e-06
6.12261e-06
6.12804e-06
6.1326e-06
6.14132e-06
6.16878e-06
6.21894e-06
6.27457e-06
6.31725e-06
6.34302e-06
6.35669e-06
6.36286e-06
6.36397e-06
6.34974e-06
6.30389e-06
6.18502e-06
5.73943e-06
4.79833e-06
3.70264e-06
2.55928e-06
7.95754e-07
1.65626e-09
1.59988e-10
6.90186e-06
3.23157e-05
8.87995e-09
3.17534e-08
1.4507e-06
3.45485e-05
0.000131635
0.000263076
0.000446502
0.000702557
0.00104978
0.00150384
0.00207341
0.00277255
0.00359119
0.00448594
0.00560224
6.11172e-06
6.11556e-06
6.11903e-06
6.12247e-06
6.12605e-06
6.12922e-06
6.13247e-06
6.14034e-06
6.15684e-06
6.18046e-06
6.20723e-06
6.23556e-06
6.26615e-06
6.30085e-06
6.34299e-06
6.39731e-06
6.46977e-06
6.59629e-06
6.70267e-06
6.58721e-06
6.17879e-06
6.06872e-06
5.25236e-06
4.29529e-06
2.84763e-06
1.79503e-06
8.36994e-07
2.33121e-07
6.43069e-08
3.35997e-07
3.10116e-06
4.21904e-08
3.56052e-09
0.000115335
7.81001e-07
5.90748e-05
0.000211829
0.000444076
0.000818318
0.00132937
0.0022725
6.11111e-06
6.11406e-06
6.11613e-06
6.11805e-06
6.12024e-06
6.12272e-06
6.12532e-06
6.12759e-06
6.12962e-06
6.13206e-06
6.13545e-06
6.14006e-06
6.14619e-06
6.15414e-06
6.16451e-06
6.17774e-06
6.1958e-06
6.22409e-06
6.26545e-06
6.32208e-06
6.40612e-06
6.53815e-06
6.71698e-06
6.72106e-06
6.71519e-06
6.38557e-06
6.03571e-06
5.72633e-06
4.84688e-06
3.83565e-06
2.63536e-06
1.57763e-06
5.3991e-07
2.94354e-09
2.22011e-08
3.81357e-07
6.42604e-06
1.34106e-09
5.55186e-06
3.79555e-05
0.000297327
6.10996e-06
6.1114e-06
6.11203e-06
6.1126e-06
6.11351e-06
6.11483e-06
6.11645e-06
6.11821e-06
6.11996e-06
6.12157e-06
6.12304e-06
6.12439e-06
6.12578e-06
6.12734e-06
6.12921e-06
6.13146e-06
6.13412e-06
6.13728e-06
6.14178e-06
6.14805e-06
6.16062e-06
6.18449e-06
6.22501e-06
6.27829e-06
6.34713e-06
6.41047e-06
6.48684e-06
6.58044e-06
6.75781e-06
6.76473e-06
6.63783e-06
6.18706e-06
5.81633e-06
4.98811e-06
3.6782e-06
1.97787e-06
7.68348e-07
2.88423e-08
4.36593e-08
1.22644e-07
1.08149e-05
6.10819e-06
6.10813e-06
6.10765e-06
6.10739e-06
6.10754e-06
6.10816e-06
6.10914e-06
6.11039e-06
6.11177e-06
6.11318e-06
6.11461e-06
6.11605e-06
6.11752e-06
6.11906e-06
6.1207e-06
6.12247e-06
6.12437e-06
6.12636e-06
6.12842e-06
6.13035e-06
6.13199e-06
6.13378e-06
6.1367e-06
6.14205e-06
6.15056e-06
6.16325e-06
6.17996e-06
6.20272e-06
6.24187e-06
6.29404e-06
6.36488e-06
6.44746e-06
6.5428e-06
6.68973e-06
6.75155e-06
6.5323e-06
5.91157e-06
4.45347e-06
2.67888e-06
1.27618e-06
9.77187e-08
6.10572e-06
6.10449e-06
6.10341e-06
6.10282e-06
6.1027e-06
6.10298e-06
6.10359e-06
6.10442e-06
6.10541e-06
6.10646e-06
6.10752e-06
6.1086e-06
6.10974e-06
6.11097e-06
6.11232e-06
6.11382e-06
6.11551e-06
6.11738e-06
6.11948e-06
6.12175e-06
6.12421e-06
6.12674e-06
6.12911e-06
6.13129e-06
6.1333e-06
6.1353e-06
6.1372e-06
6.13905e-06
6.14108e-06
6.14525e-06
6.15281e-06
6.16772e-06
6.19121e-06
6.23209e-06
6.30318e-06
6.40996e-06
6.50799e-06
6.67714e-06
6.56931e-06
6.46017e-06
4.7415e-06
6.1028e-06
6.10102e-06
6.09987e-06
6.09936e-06
6.09926e-06
6.09947e-06
6.09991e-06
6.10053e-06
6.10128e-06
6.10209e-06
6.10295e-06
6.10382e-06
6.1047e-06
6.10562e-06
6.1066e-06
6.10768e-06
6.10888e-06
6.11022e-06
6.11175e-06
6.11345e-06
6.11544e-06
6.1177e-06
6.12006e-06
6.12248e-06
6.12495e-06
6.12742e-06
6.12983e-06
6.13212e-06
6.13422e-06
6.13611e-06
6.1377e-06
6.13905e-06
6.14045e-06
6.14236e-06
6.14642e-06
6.15759e-06
6.17748e-06
6.22934e-06
6.3216e-06
6.47279e-06
6.63289e-06
6.09984e-06
6.09813e-06
6.09727e-06
6.09698e-06
6.09698e-06
6.09716e-06
6.09749e-06
6.09794e-06
6.09849e-06
6.09911e-06
6.09978e-06
6.10049e-06
6.10122e-06
6.10196e-06
6.10274e-06
6.10357e-06
6.10447e-06
6.10546e-06
6.10656e-06
6.10777e-06
6.10918e-06
6.11081e-06
6.11254e-06
6.11436e-06
6.11626e-06
6.11824e-06
6.1203e-06
6.12242e-06
6.12461e-06
6.12683e-06
6.12908e-06
6.13129e-06
6.1334e-06
6.13526e-06
6.1367e-06
6.13756e-06
6.1381e-06
6.13745e-06
6.14371e-06
6.15178e-06
6.21592e-06
6.09728e-06
6.09607e-06
6.09555e-06
6.09539e-06
6.09537e-06
6.09546e-06
6.09565e-06
6.09593e-06
6.09631e-06
6.09677e-06
6.09729e-06
6.09788e-06
6.09851e-06
6.09917e-06
6.09986e-06
6.10057e-06
6.10134e-06
6.10215e-06
6.10305e-06
6.104e-06
6.1051e-06
6.10635e-06
6.10767e-06
6.10904e-06
6.11047e-06
6.11195e-06
6.11349e-06
6.11507e-06
6.11671e-06
6.11842e-06
6.12018e-06
6.12202e-06
6.12393e-06
6.12591e-06
6.12795e-06
6.12998e-06
6.13195e-06
6.13336e-06
6.13425e-06
6.13364e-06
6.13321e-06
6.09539e-06
6.09478e-06
6.09442e-06
6.09418e-06
6.094e-06
6.09391e-06
6.09391e-06
6.09403e-06
6.09424e-06
6.09454e-06
6.09491e-06
6.09536e-06
6.09588e-06
6.09645e-06
6.09706e-06
6.09771e-06
6.0984e-06
6.09914e-06
6.09994e-06
6.10079e-06
6.10174e-06
6.10279e-06
6.10389e-06
6.10504e-06
6.10622e-06
6.10745e-06
6.1087e-06
6.10999e-06
6.11131e-06
6.11267e-06
6.11407e-06
6.11551e-06
6.117e-06
6.11854e-06
6.12014e-06
6.1218e-06
6.12354e-06
6.12538e-06
6.12709e-06
6.1292e-06
6.12972e-06
6.09412e-06
6.09407e-06
6.09361e-06
6.09314e-06
6.09274e-06
6.09246e-06
6.0923e-06
6.09223e-06
6.09225e-06
6.09234e-06
6.09249e-06
6.09271e-06
6.09298e-06
6.0933e-06
6.09368e-06
6.09409e-06
6.09454e-06
6.09504e-06
6.09559e-06
6.09618e-06
6.09685e-06
6.0976e-06
6.09839e-06
6.09922e-06
6.10009e-06
6.10099e-06
6.10193e-06
6.1029e-06
6.1039e-06
6.10493e-06
6.106e-06
6.1071e-06
6.10824e-06
6.10942e-06
6.11064e-06
6.11191e-06
6.11323e-06
6.11462e-06
6.116e-06
6.11768e-06
6.11895e-06
6.09314e-06
6.09357e-06
6.09315e-06
6.09252e-06
6.092e-06
6.09164e-06
6.09139e-06
6.09122e-06
6.09112e-06
6.09107e-06
6.09107e-06
6.09111e-06
6.09119e-06
6.09131e-06
6.09146e-06
6.09164e-06
6.09185e-06
6.09208e-06
6.09235e-06
6.09264e-06
6.09298e-06
6.09338e-06
6.0938e-06
6.09426e-06
6.09476e-06
6.09528e-06
6.09583e-06
6.09641e-06
6.09702e-06
6.09765e-06
6.0983e-06
6.09898e-06
6.09969e-06
6.10042e-06
6.10119e-06
6.10199e-06
6.10282e-06
6.1037e-06
6.10458e-06
6.10563e-06
6.10644e-06
6.09241e-06
6.09301e-06
6.09267e-06
6.09207e-06
6.09159e-06
6.0912e-06
6.09091e-06
6.0907e-06
6.09055e-06
6.09046e-06
6.09041e-06
6.09041e-06
6.09045e-06
6.09052e-06
6.09062e-06
6.09075e-06
6.09091e-06
6.09109e-06
6.0913e-06
6.09153e-06
6.09179e-06
6.09207e-06
6.09238e-06
6.09271e-06
6.09306e-06
6.09343e-06
6.09382e-06
6.09422e-06
6.09464e-06
6.09508e-06
6.09553e-06
6.09598e-06
6.09645e-06
6.09693e-06
6.09743e-06
6.09793e-06
6.09845e-06
6.09897e-06
6.0995e-06
6.10011e-06
6.10055e-06
6.09204e-06
6.0927e-06
6.09233e-06
6.0917e-06
6.09113e-06
6.09069e-06
6.09035e-06
6.0901e-06
6.08991e-06
6.08979e-06
6.08971e-06
6.08967e-06
6.08967e-06
6.0897e-06
6.08976e-06
6.08984e-06
6.08995e-06
6.09008e-06
6.09024e-06
6.09042e-06
6.09063e-06
6.09086e-06
6.09111e-06
6.09138e-06
6.09167e-06
6.09198e-06
6.09231e-06
6.09266e-06
6.09301e-06
6.09338e-06
6.09376e-06
6.09415e-06
6.09455e-06
6.09495e-06
6.09536e-06
6.09577e-06
6.09619e-06
6.09662e-06
6.09704e-06
6.0975e-06
6.09788e-06
6.09183e-06
6.09241e-06
6.09194e-06
6.0913e-06
6.0907e-06
6.09024e-06
6.08988e-06
6.08962e-06
6.08942e-06
6.08928e-06
6.08918e-06
6.08911e-06
6.08908e-06
6.08907e-06
6.08909e-06
6.08914e-06
6.0892e-06
6.08929e-06
6.0894e-06
6.08952e-06
6.08967e-06
6.08984e-06
6.09003e-06
6.09024e-06
6.09046e-06
6.0907e-06
6.09096e-06
6.09123e-06
6.09151e-06
6.09181e-06
6.09211e-06
6.09242e-06
6.09274e-06
6.09307e-06
6.0934e-06
6.09374e-06
6.09408e-06
6.09443e-06
6.09478e-06
6.09513e-06
6.09549e-06
6.09169e-06
6.09209e-06
6.09153e-06
6.09087e-06
6.09032e-06
6.08989e-06
6.08954e-06
6.08929e-06
6.0891e-06
6.08895e-06
6.08882e-06
6.08874e-06
6.08868e-06
6.08865e-06
6.08864e-06
6.08865e-06
6.08867e-06
6.08872e-06
6.08878e-06
6.08886e-06
6.08896e-06
6.08908e-06
6.08921e-06
6.08936e-06
6.08953e-06
6.08971e-06
6.08991e-06
6.09011e-06
6.09033e-06
6.09056e-06
6.0908e-06
6.09104e-06
6.09129e-06
6.09154e-06
6.0918e-06
6.09206e-06
6.09233e-06
6.0926e-06
6.09288e-06
6.09313e-06
6.09344e-06
6.09154e-06
6.09172e-06
6.09109e-06
6.09045e-06
6.08996e-06
6.08959e-06
6.08933e-06
6.08912e-06
6.08895e-06
6.08878e-06
6.08865e-06
6.08856e-06
6.08848e-06
6.08842e-06
6.08838e-06
6.08836e-06
6.08835e-06
6.08836e-06
6.08838e-06
6.08842e-06
6.08847e-06
6.08854e-06
6.08863e-06
6.08873e-06
6.08884e-06
6.08897e-06
6.08912e-06
6.08927e-06
6.08943e-06
6.08961e-06
6.08979e-06
6.08998e-06
6.09017e-06
6.09037e-06
6.09057e-06
6.09077e-06
6.09099e-06
6.09119e-06
6.09141e-06
6.09159e-06
6.09186e-06
6.09133e-06
6.0913e-06
6.09065e-06
6.09006e-06
6.08963e-06
6.08933e-06
6.08912e-06
6.08897e-06
6.08885e-06
6.08876e-06
6.08867e-06
6.08858e-06
6.08847e-06
6.08838e-06
6.08832e-06
6.08827e-06
6.08823e-06
6.0882e-06
6.08819e-06
6.08818e-06
6.0882e-06
6.08823e-06
6.08827e-06
6.08833e-06
6.0884e-06
6.08848e-06
6.08858e-06
6.08868e-06
6.0888e-06
6.08893e-06
6.08906e-06
6.0892e-06
6.08935e-06
6.0895e-06
6.08966e-06
6.08981e-06
6.08998e-06
6.09013e-06
6.09031e-06
6.09044e-06
6.09068e-06
6.09104e-06
6.09086e-06
6.09022e-06
6.08968e-06
6.08932e-06
6.08909e-06
6.08895e-06
6.08885e-06
6.08878e-06
6.08873e-06
6.08868e-06
6.08863e-06
6.08858e-06
6.08853e-06
6.08846e-06
6.08838e-06
6.0883e-06
6.08824e-06
6.0882e-06
6.08816e-06
6.08813e-06
6.08812e-06
6.08812e-06
6.08814e-06
6.08817e-06
6.08821e-06
6.08826e-06
6.08833e-06
6.0884e-06
6.08848e-06
6.08858e-06
6.08868e-06
6.08879e-06
6.0889e-06
6.08901e-06
6.08913e-06
6.08925e-06
6.08937e-06
6.08951e-06
6.08959e-06
6.0898e-06
6.09068e-06
6.0904e-06
6.08979e-06
6.08932e-06
6.08903e-06
6.08887e-06
6.08878e-06
6.08874e-06
6.08873e-06
6.08872e-06
6.08871e-06
6.0887e-06
6.08868e-06
6.08866e-06
6.08863e-06
6.08859e-06
6.08854e-06
6.08849e-06
6.08842e-06
6.08833e-06
6.08827e-06
6.08822e-06
6.08819e-06
6.08817e-06
6.08816e-06
6.08816e-06
6.08817e-06
6.0882e-06
6.08823e-06
6.08828e-06
6.08833e-06
6.08839e-06
6.08846e-06
6.08853e-06
6.08861e-06
6.08869e-06
6.08878e-06
6.08887e-06
6.08897e-06
6.08902e-06
6.08919e-06
6.09028e-06
6.08993e-06
6.08936e-06
6.08896e-06
6.08874e-06
6.08865e-06
6.08862e-06
6.08863e-06
6.08866e-06
6.08869e-06
6.08873e-06
6.08875e-06
6.08877e-06
6.08878e-06
6.08878e-06
6.08877e-06
6.08875e-06
6.08872e-06
6.08869e-06
6.08865e-06
6.0886e-06
6.08854e-06
6.08847e-06
6.08841e-06
6.08836e-06
6.08832e-06
6.0883e-06
6.08829e-06
6.08828e-06
6.08829e-06
6.0883e-06
6.08833e-06
6.08836e-06
6.0884e-06
6.08844e-06
6.08849e-06
6.08855e-06
6.0886e-06
6.08867e-06
6.0887e-06
6.08884e-06
6.08983e-06
6.08945e-06
6.08894e-06
6.08861e-06
6.08846e-06
6.08842e-06
6.08844e-06
6.0885e-06
6.08857e-06
6.08865e-06
6.08872e-06
6.08878e-06
6.08883e-06
6.08887e-06
6.0889e-06
6.08892e-06
6.08893e-06
6.08893e-06
6.08892e-06
6.08891e-06
6.08888e-06
6.08885e-06
6.08881e-06
6.08877e-06
6.08871e-06
6.08864e-06
6.08858e-06
6.08854e-06
6.0885e-06
6.08847e-06
6.08845e-06
6.08844e-06
6.08844e-06
6.08845e-06
6.08846e-06
6.08848e-06
6.08851e-06
6.08853e-06
6.08858e-06
6.08858e-06
6.08869e-06
6.08934e-06
6.08895e-06
6.0885e-06
6.08825e-06
6.08816e-06
6.08818e-06
6.08825e-06
6.08834e-06
6.08845e-06
6.08856e-06
6.08867e-06
6.08876e-06
6.08885e-06
6.08892e-06
6.08898e-06
6.08903e-06
6.08906e-06
6.08909e-06
6.08911e-06
6.08912e-06
6.08912e-06
6.08911e-06
6.08909e-06
6.08907e-06
6.08904e-06
6.08899e-06
6.08895e-06
6.0889e-06
6.08884e-06
6.08878e-06
6.08873e-06
6.08869e-06
6.08866e-06
6.08863e-06
6.08862e-06
6.08861e-06
6.08861e-06
6.08861e-06
6.08863e-06
6.08861e-06
6.08869e-06
6.08882e-06
6.08843e-06
6.08806e-06
6.08788e-06
6.08785e-06
6.08791e-06
6.08802e-06
6.08815e-06
6.08829e-06
6.08842e-06
6.08856e-06
6.08868e-06
6.0888e-06
6.0889e-06
6.08899e-06
6.08906e-06
6.08913e-06
6.08918e-06
6.08922e-06
6.08926e-06
6.08928e-06
6.0893e-06
6.0893e-06
6.0893e-06
6.08928e-06
6.08926e-06
6.08924e-06
6.0892e-06
6.08917e-06
6.08913e-06
6.08909e-06
6.08903e-06
6.08898e-06
6.08893e-06
6.08889e-06
6.08886e-06
6.08883e-06
6.08881e-06
6.08881e-06
6.08878e-06
6.08884e-06
6.08825e-06
6.08789e-06
6.08759e-06
6.08748e-06
6.0875e-06
6.0876e-06
6.08774e-06
6.0879e-06
6.08806e-06
6.08822e-06
6.08838e-06
6.08852e-06
6.08866e-06
6.08879e-06
6.0889e-06
6.08901e-06
6.0891e-06
6.08918e-06
6.08924e-06
6.0893e-06
6.08935e-06
6.08939e-06
6.08942e-06
6.08943e-06
6.08944e-06
6.08944e-06
6.08943e-06
6.08941e-06
6.08939e-06
6.08937e-06
6.08934e-06
6.08931e-06
6.08927e-06
6.08923e-06
6.0892e-06
6.08917e-06
6.08915e-06
6.08913e-06
6.0891e-06
6.0891e-06
6.08913e-06
6.08765e-06
6.08732e-06
6.08709e-06
6.08704e-06
6.0871e-06
6.08724e-06
6.0874e-06
6.08757e-06
6.08775e-06
6.08793e-06
6.08811e-06
6.08827e-06
6.08843e-06
6.08858e-06
6.08872e-06
6.08885e-06
6.08896e-06
6.08906e-06
6.08916e-06
6.08924e-06
6.08931e-06
6.08937e-06
6.08942e-06
6.08945e-06
6.08948e-06
6.0895e-06
6.0895e-06
6.08951e-06
6.0895e-06
6.08949e-06
6.08948e-06
6.08947e-06
6.08944e-06
6.08941e-06
6.08939e-06
6.08937e-06
6.08936e-06
6.08935e-06
6.08933e-06
6.08934e-06
6.08935e-06
6.087e-06
6.08672e-06
6.08655e-06
6.08655e-06
6.08665e-06
6.0868e-06
6.08698e-06
6.08716e-06
6.08736e-06
6.08755e-06
6.08773e-06
6.08792e-06
6.08809e-06
6.08826e-06
6.08842e-06
6.08856e-06
6.0887e-06
6.08883e-06
6.08894e-06
6.08904e-06
6.08914e-06
6.08922e-06
6.08929e-06
6.08934e-06
6.08939e-06
6.08942e-06
6.08945e-06
6.08947e-06
6.08948e-06
6.08948e-06
6.08948e-06
6.08948e-06
6.08947e-06
6.08945e-06
6.08944e-06
6.08944e-06
6.08943e-06
6.08943e-06
6.08942e-06
6.08944e-06
6.08942e-06
6.08631e-06
6.08608e-06
6.08596e-06
6.086e-06
6.08612e-06
6.08628e-06
6.08646e-06
6.08665e-06
6.08685e-06
6.08705e-06
6.08725e-06
6.08744e-06
6.08763e-06
6.08781e-06
6.08798e-06
6.08815e-06
6.08831e-06
6.08845e-06
6.08859e-06
6.08871e-06
6.08882e-06
6.08893e-06
6.08901e-06
6.08909e-06
6.08915e-06
6.0892e-06
6.08924e-06
6.08928e-06
6.0893e-06
6.08932e-06
6.08934e-06
6.08935e-06
6.08935e-06
6.08935e-06
6.08935e-06
6.08935e-06
6.08935e-06
6.08936e-06
6.08936e-06
6.08939e-06
6.08937e-06
6.08557e-06
6.08539e-06
6.08532e-06
6.08538e-06
6.08551e-06
6.08567e-06
6.08584e-06
6.08603e-06
6.08623e-06
6.08643e-06
6.08663e-06
6.08683e-06
6.08703e-06
6.08722e-06
6.08741e-06
6.08759e-06
6.08777e-06
6.08793e-06
6.08808e-06
6.08822e-06
6.08836e-06
6.08848e-06
6.08858e-06
6.08867e-06
6.08875e-06
6.08882e-06
6.08888e-06
6.08893e-06
6.08897e-06
6.08901e-06
6.08904e-06
6.08906e-06
6.08907e-06
6.08908e-06
6.08909e-06
6.0891e-06
6.08911e-06
6.08913e-06
6.08914e-06
6.08917e-06
6.08916e-06
6.08478e-06
6.08464e-06
6.08461e-06
6.08468e-06
6.0848e-06
6.08494e-06
6.08511e-06
6.08528e-06
6.08547e-06
6.08567e-06
6.08587e-06
6.08608e-06
6.08629e-06
6.08649e-06
6.08669e-06
6.08689e-06
6.08707e-06
6.08725e-06
6.08742e-06
6.08758e-06
6.08773e-06
6.08786e-06
6.08799e-06
6.08809e-06
6.08819e-06
6.08828e-06
6.08835e-06
6.08842e-06
6.08847e-06
6.08852e-06
6.08856e-06
6.0886e-06
6.08863e-06
6.08865e-06
6.08867e-06
6.08869e-06
6.08871e-06
6.08873e-06
6.08875e-06
6.08878e-06
6.08879e-06
6.08393e-06
6.08382e-06
6.08381e-06
6.08387e-06
6.08398e-06
6.0841e-06
6.08424e-06
6.0844e-06
6.08458e-06
6.08478e-06
6.08498e-06
6.08519e-06
6.0854e-06
6.08561e-06
6.08582e-06
6.08603e-06
6.08623e-06
6.08642e-06
6.0866e-06
6.08677e-06
6.08693e-06
6.08708e-06
6.08722e-06
6.08734e-06
6.08745e-06
6.08755e-06
6.08764e-06
6.08772e-06
6.08779e-06
6.08785e-06
6.08791e-06
6.08795e-06
6.088e-06
6.08803e-06
6.08806e-06
6.08809e-06
6.08812e-06
6.08815e-06
6.08817e-06
6.08821e-06
6.08823e-06
6.08301e-06
6.08292e-06
6.08292e-06
6.08296e-06
6.08303e-06
6.08313e-06
6.08325e-06
6.08339e-06
6.08355e-06
6.08374e-06
6.08394e-06
6.08415e-06
6.08436e-06
6.08458e-06
6.08479e-06
6.08501e-06
6.08521e-06
6.08541e-06
6.0856e-06
6.08578e-06
6.08596e-06
6.08612e-06
6.08627e-06
6.0864e-06
6.08653e-06
6.08664e-06
6.08674e-06
6.08683e-06
6.08692e-06
6.08699e-06
6.08706e-06
6.08712e-06
6.08717e-06
6.08721e-06
6.08726e-06
6.0873e-06
6.08733e-06
6.08737e-06
6.08741e-06
6.08745e-06
6.08747e-06
6.08203e-06
6.08195e-06
6.08193e-06
6.08194e-06
6.08197e-06
6.08203e-06
6.08212e-06
6.08224e-06
6.08239e-06
6.08256e-06
6.08275e-06
6.08295e-06
6.08316e-06
6.08338e-06
6.0836e-06
6.08381e-06
6.08402e-06
6.08423e-06
6.08443e-06
6.08462e-06
6.08479e-06
6.08496e-06
6.08512e-06
6.08526e-06
6.0854e-06
6.08552e-06
6.08564e-06
6.08574e-06
6.08583e-06
6.08592e-06
6.08599e-06
6.08606e-06
6.08612e-06
6.08618e-06
6.08623e-06
6.08628e-06
6.08632e-06
6.08636e-06
6.08641e-06
6.08645e-06
6.08648e-06
6.08098e-06
6.0809e-06
6.08085e-06
6.08081e-06
6.0808e-06
6.08082e-06
6.08087e-06
6.08097e-06
6.08109e-06
6.08124e-06
6.08141e-06
6.0816e-06
6.08181e-06
6.08201e-06
6.08223e-06
6.08244e-06
6.08265e-06
6.08285e-06
6.08305e-06
6.08324e-06
6.08342e-06
6.08359e-06
6.08375e-06
6.08391e-06
6.08405e-06
6.08418e-06
6.0843e-06
6.08441e-06
6.08451e-06
6.0846e-06
6.08469e-06
6.08477e-06
6.08484e-06
6.0849e-06
6.08496e-06
6.08502e-06
6.08508e-06
6.08513e-06
6.08518e-06
6.08523e-06
6.08526e-06
6.07984e-06
6.07976e-06
6.07967e-06
6.07958e-06
6.07952e-06
6.07949e-06
6.07951e-06
6.07957e-06
6.07966e-06
6.07979e-06
6.07993e-06
6.0801e-06
6.08028e-06
6.08047e-06
6.08067e-06
6.08087e-06
6.08107e-06
6.08127e-06
6.08146e-06
6.08164e-06
6.08182e-06
6.08199e-06
6.08215e-06
6.0823e-06
6.08244e-06
6.08258e-06
6.0827e-06
6.08282e-06
6.08292e-06
6.08302e-06
6.08311e-06
6.08319e-06
6.08327e-06
6.08334e-06
6.0834e-06
6.08346e-06
6.08352e-06
6.08357e-06
6.08362e-06
6.08367e-06
6.08371e-06
6.0786e-06
6.07852e-06
6.07838e-06
6.07825e-06
6.07814e-06
6.07807e-06
6.07805e-06
6.07807e-06
6.07812e-06
6.0782e-06
6.07831e-06
6.07844e-06
6.07859e-06
6.07875e-06
6.07892e-06
6.07909e-06
6.07927e-06
6.07945e-06
6.07962e-06
6.0798e-06
6.07996e-06
6.08012e-06
6.08027e-06
6.08041e-06
6.08055e-06
6.08068e-06
6.0808e-06
6.08092e-06
6.08103e-06
6.08113e-06
6.08122e-06
6.08131e-06
6.0814e-06
6.08148e-06
6.08156e-06
6.08163e-06
6.0817e-06
6.08176e-06
6.08183e-06
6.08189e-06
6.08194e-06
6.07726e-06
6.07715e-06
6.07698e-06
6.07681e-06
6.07667e-06
6.07656e-06
6.0765e-06
6.07647e-06
6.07647e-06
6.0765e-06
6.07656e-06
6.07663e-06
6.07673e-06
6.07684e-06
6.07697e-06
6.0771e-06
6.07724e-06
6.07739e-06
6.07753e-06
6.07768e-06
6.07782e-06
6.07796e-06
6.0781e-06
6.07823e-06
6.07835e-06
6.07848e-06
6.07859e-06
6.0787e-06
6.0788e-06
6.0789e-06
6.07899e-06
6.07907e-06
6.07915e-06
6.07922e-06
6.07928e-06
6.07934e-06
6.0794e-06
6.07945e-06
6.0795e-06
6.07953e-06
6.07957e-06
6.0758e-06
6.07567e-06
6.07548e-06
6.07528e-06
6.07512e-06
6.07499e-06
6.07488e-06
6.0748e-06
6.07475e-06
6.07471e-06
6.0747e-06
6.0747e-06
6.07473e-06
6.07477e-06
6.07483e-06
6.0749e-06
6.07497e-06
6.07506e-06
6.07515e-06
6.07525e-06
6.07534e-06
6.07543e-06
6.07553e-06
6.07563e-06
6.07572e-06
6.07582e-06
6.07591e-06
6.07601e-06
6.0761e-06
6.07619e-06
6.07628e-06
6.07637e-06
6.07645e-06
6.07654e-06
6.07663e-06
6.07672e-06
6.0768e-06
6.07688e-06
6.07697e-06
6.07705e-06
6.07711e-06
6.07421e-06
6.07407e-06
6.07387e-06
6.07368e-06
6.07351e-06
6.07336e-06
6.07323e-06
6.07311e-06
6.073e-06
6.07289e-06
6.0728e-06
6.07272e-06
6.07265e-06
6.0726e-06
6.07255e-06
6.07252e-06
6.07251e-06
6.0725e-06
6.07251e-06
6.07254e-06
6.07257e-06
6.07262e-06
6.07267e-06
6.07274e-06
6.07281e-06
6.07288e-06
6.07296e-06
6.07303e-06
6.0731e-06
6.07317e-06
6.07324e-06
6.0733e-06
6.07335e-06
6.0734e-06
6.07344e-06
6.07348e-06
6.07351e-06
6.07353e-06
6.07354e-06
6.07355e-06
6.07355e-06
6.07251e-06
6.07237e-06
6.07219e-06
6.07203e-06
6.07187e-06
6.07173e-06
6.07158e-06
6.07143e-06
6.07128e-06
6.07112e-06
6.07095e-06
6.07079e-06
6.07062e-06
6.07046e-06
6.07031e-06
6.07019e-06
6.0701e-06
6.07002e-06
6.06995e-06
6.0699e-06
6.06985e-06
6.0698e-06
6.06977e-06
6.06975e-06
6.06974e-06
6.06973e-06
6.06972e-06
6.06971e-06
6.06971e-06
6.06972e-06
6.06973e-06
6.06976e-06
6.0698e-06
6.06985e-06
6.0699e-06
6.06997e-06
6.07004e-06
6.07012e-06
6.07021e-06
6.0703e-06
6.07041e-06
6.07067e-06
6.07056e-06
6.07044e-06
6.07032e-06
6.07022e-06
6.0701e-06
6.06998e-06
6.06985e-06
6.06969e-06
6.0695e-06
6.06929e-06
6.06905e-06
6.06882e-06
6.06865e-06
6.06858e-06
6.0686e-06
6.06867e-06
6.06879e-06
6.06891e-06
6.06903e-06
6.06913e-06
6.06922e-06
6.06931e-06
6.06941e-06
6.06952e-06
6.06961e-06
6.0697e-06
6.0698e-06
6.06989e-06
6.06998e-06
6.07006e-06
6.07013e-06
6.0702e-06
6.07027e-06
6.07034e-06
6.0704e-06
6.07047e-06
6.07053e-06
6.07059e-06
6.07066e-06
6.07071e-06
6.06867e-06
6.06863e-06
6.06859e-06
6.06856e-06
6.06852e-06
6.06849e-06
6.06845e-06
6.06839e-06
6.06832e-06
6.06822e-06
6.06809e-06
6.0679e-06
6.06787e-06
6.06799e-06
6.06822e-06
6.06854e-06
6.06893e-06
6.06939e-06
6.06989e-06
6.07044e-06
6.07103e-06
6.07164e-06
6.07228e-06
6.07294e-06
6.0736e-06
6.07428e-06
6.07492e-06
6.07553e-06
6.07608e-06
6.07657e-06
6.07701e-06
6.0774e-06
6.07773e-06
6.07802e-06
6.07827e-06
6.07848e-06
6.07865e-06
6.0788e-06
6.0789e-06
6.07901e-06
6.07904e-06
0.00354662
0.00486323
0.00548559
0.00584687
0.00606872
0.00617558
0.00617626
0.00607838
0.005889
0.00560758
0.00520863
0.00468224
0.00408478
0.00347589
0.00282736
0.00182927
0.000554373
0.000269783
0.00244845
0.00560733
0.00762321
0.0081172
0.00751147
0.00620864
0.00448038
0.00260997
0.00101028
9.01846e-05
5.16145e-05
2.38015e-08
1.68602e-11
2.44122e-06
9.01815e-06
8.5035e-06
6.51482e-06
5.88582e-06
6.01228e-06
6.1887e-06
6.22994e-06
6.2096e-06
6.19295e-06
6.18896e-06
6.18839e-06
6.18659e-06
6.18372e-06
6.18082e-06
6.17891e-06
6.17615e-06
6.17272e-06
6.16947e-06
6.16688e-06
6.16523e-06
6.16477e-06
6.16563e-06
6.16787e-06
6.17145e-06
6.17611e-06
6.18454e-06
6.19098e-06
6.19814e-06
6.20563e-06
6.21277e-06
6.21894e-06
6.22364e-06
6.22653e-06
6.22728e-06
6.22555e-06
6.2212e-06
6.21428e-06
6.20501e-06
6.19394e-06
6.18221e-06
6.17107e-06
6.16149e-06
0.00485754
0.00601123
0.00673396
0.00718323
0.00745707
0.00760936
0.00766917
0.00764897
0.00755268
0.00737694
0.00709909
0.00669522
0.00620243
0.00568566
0.00517019
0.00415046
0.00226071
0.00176087
0.00447421
0.00824942
0.0106648
0.0113854
0.0109158
0.009694
0.00796804
0.00589044
0.00366824
0.00164824
0.00036992
1.57743e-06
1.92792e-07
1.16436e-08
5.90726e-07
6.66696e-06
9.29868e-06
7.24648e-06
6.00695e-06
5.90193e-06
6.12654e-06
6.24503e-06
6.23893e-06
6.20564e-06
6.19031e-06
6.18893e-06
6.18907e-06
6.18633e-06
6.18269e-06
6.17908e-06
6.17552e-06
6.17239e-06
6.17012e-06
6.16912e-06
6.16975e-06
6.17222e-06
6.17643e-06
6.18216e-06
6.18899e-06
6.19488e-06
6.20133e-06
6.20847e-06
6.21603e-06
6.22322e-06
6.22918e-06
6.23339e-06
6.23545e-06
6.23505e-06
6.23195e-06
6.22608e-06
6.21766e-06
6.20713e-06
6.19529e-06
6.18349e-06
6.17292e-06
6.16525e-06
0.00613103
0.00668596
0.00739316
0.0079459
0.00829542
0.00852019
0.00867324
0.0087672
0.00879807
0.00876077
0.00864044
0.0084102
0.00808559
0.0077274
0.00741232
0.00670755
0.00494352
0.0037847
0.00565016
0.00932935
0.0122522
0.0135814
0.0136133
0.0127791
0.0113599
0.00950471
0.00731133
0.00490298
0.00257631
0.000917955
3.50045e-05
7.30392e-05
5.56787e-07
8.88619e-08
1.56302e-06
7.42901e-06
8.46356e-06
6.7781e-06
5.92489e-06
5.91645e-06
6.12942e-06
6.24073e-06
6.23923e-06
6.20674e-06
6.188e-06
6.1839e-06
6.18445e-06
6.18365e-06
6.1805e-06
6.17689e-06
6.17456e-06
6.17414e-06
6.17571e-06
6.17931e-06
6.18481e-06
6.19199e-06
6.20078e-06
6.20732e-06
6.21358e-06
6.2203e-06
6.22749e-06
6.23439e-06
6.23999e-06
6.24357e-06
6.24465e-06
6.24296e-06
6.23837e-06
6.23095e-06
6.22107e-06
6.20943e-06
6.19704e-06
6.18542e-06
6.17564e-06
6.16983e-06
0.00727732
0.00798606
0.00841068
0.00864894
0.00876085
0.00892076
0.00912073
0.00930756
0.00944738
0.009539
0.00958448
0.00955715
0.00944613
0.00929041
0.00918968
0.00888397
0.00762449
0.00615476
0.00689275
0.00996377
0.0131576
0.0151281
0.0157981
0.0154986
0.0145232
0.0130517
0.01118
0.00895922
0.00645721
0.00391223
0.0017827
0.000453538
3.94051e-05
8.07656e-08
6.5753e-08
8.31201e-09
2.67252e-06
8.14659e-06
8.67678e-06
6.99227e-06
6.04292e-06
5.92333e-06
6.09945e-06
6.23013e-06
6.24896e-06
6.2155e-06
6.18653e-06
6.17747e-06
6.17922e-06
6.18175e-06
6.18213e-06
6.18192e-06
6.18312e-06
6.18687e-06
6.19318e-06
6.2015e-06
6.21196e-06
6.22066e-06
6.22753e-06
6.23376e-06
6.24008e-06
6.24619e-06
6.25111e-06
6.25393e-06
6.25397e-06
6.25095e-06
6.24488e-06
6.23601e-06
6.22485e-06
6.21227e-06
6.19949e-06
6.18814e-06
6.17918e-06
6.17518e-06
0.00790772
0.00849342
0.00895146
0.0092816
0.00947439
0.00957854
0.00964176
0.00968417
0.00969393
0.00974095
0.00986146
0.00999093
0.0100728
0.0101148
0.010218
0.0102775
0.00959619
0.00837723
0.00835065
0.0104743
0.0135177
0.0159741
0.0173236
0.0176718
0.0172609
0.0162845
0.0148617
0.013054
0.0108837
0.00838099
0.00572348
0.0032104
0.00137828
0.000272367
9.59001e-07
7.83402e-08
1.24148e-08
1.18568e-08
2.11028e-06
7.78446e-06
8.99755e-06
7.40038e-06
6.20976e-06
5.89248e-06
6.01128e-06
6.1778e-06
6.24286e-06
6.22806e-06
6.19565e-06
6.17832e-06
6.17794e-06
6.18536e-06
6.19329e-06
6.19978e-06
6.20597e-06
6.21336e-06
6.22339e-06
6.23376e-06
6.24226e-06
6.24873e-06
6.25411e-06
6.25881e-06
6.26246e-06
6.26422e-06
6.26317e-06
6.25892e-06
6.25152e-06
6.24139e-06
6.22921e-06
6.21595e-06
6.20292e-06
6.19184e-06
6.18356e-06
6.18112e-06
0.00766927
0.00791718
0.00821393
0.00856602
0.00894362
0.0092963
0.00959144
0.00981792
0.0099678
0.0100571
0.0101195
0.0101662
0.0101684
0.0102002
0.0103827
0.0106666
0.0105676
0.00994375
0.00961873
0.0108138
0.013339
0.0159959
0.0179547
0.019016
0.0192848
0.0189227
0.0180588
0.0167754
0.0151124
0.0130727
0.010676
0.00799897
0.00528085
0.00285483
0.00116273
0.000158551
0.000240346
7.48432e-08
1.67066e-08
1.61813e-11
9.83592e-07
5.77977e-06
8.68962e-06
7.85335e-06
6.54968e-06
5.9505e-06
5.91819e-06
6.08321e-06
6.20955e-06
6.24009e-06
6.21802e-06
6.19345e-06
6.18711e-06
6.1968e-06
6.21276e-06
6.2277e-06
6.24011e-06
6.25063e-06
6.25917e-06
6.26547e-06
6.26986e-06
6.27283e-06
6.27454e-06
6.27461e-06
6.27218e-06
6.26671e-06
6.25822e-06
6.24713e-06
6.23425e-06
6.2206e-06
6.20751e-06
6.19669e-06
6.18888e-06
6.18757e-06
0.00571919
0.00572279
0.00580773
0.00602464
0.00638473
0.00686853
0.00743041
0.00802361
0.00859836
0.00911125
0.00953806
0.00987254
0.0101032
0.0102391
0.0103593
0.010549
0.010626
0.0104097
0.0101311
0.010659
0.0124676
0.0149899
0.0173738
0.0191398
0.0201804
0.0205615
0.0203878
0.0197483
0.0187013
0.0172715
0.01546
0.013263
0.0107171
0.0079433
0.00518995
0.00277862
0.00114859
0.000172203
3.6909e-09
2.99296e-07
5.31164e-09
4.42347e-08
9.41232e-07
4.07145e-06
8.08638e-06
8.26036e-06
7.01233e-06
6.1139e-06
5.85906e-06
5.9724e-06
6.15484e-06
6.25617e-06
6.26961e-06
6.2459e-06
6.22677e-06
6.22664e-06
6.24111e-06
6.26023e-06
6.27627e-06
6.28606e-06
6.29018e-06
6.29063e-06
6.28909e-06
6.28622e-06
6.28156e-06
6.27455e-06
6.26501e-06
6.25322e-06
6.23999e-06
6.22628e-06
6.21337e-06
6.20285e-06
6.19527e-06