/*--------------------------------*- C++ -*----------------------------------*\
| =========                 |                                                 |
| \\      /  F ield         | OpenFOAM: The Open Source CFD Toolbox           |
|  \\    /   O peration     | Version:  2312                                  |
|   \\  /    A nd           | Website:  www.openfoam.com                      |
|    \\/     M anipulation  |                                                 |
\*---------------------------------------------------------------------------*/
FoamFile
{
    version     2.0;
    format      ascii;
    arch        "LSB;label=32;scalar=64";
    class       volScalarField;
    location    "100";
    object      nuTilda;
}
// * * * * * * * * * * * * * * * * * * * * * * * * * * * * * * * * * * * * * //

dimensions      [0 2 -1 0 0 0 0];

internalField   nonuniform List<scalar> 
11040
(
6.34899e-05
8.92822e-05
0.000126316
0.000193268
0.000298265
0.000722064
0.00116147
0.00125415
0.00134984
0.00145675
0.0015672
0.00167944
0.00177863
0.00185313
0.00190358
0.00193681
0.00195854
0.00197118
0.00197404
0.00196572
0.00194322
0.00191201
0.00188115
0.00185253
0.00182636
0.00179932
0.00177019
0.00173851
0.00170381
0.00166551
0.00162296
0.00157526
0.00152144
0.00145998
0.00138912
0.00130757
0.00121292
0.00110329
0.00094035
0.000685286
0.0006364
3.85967e-05
3.95848e-05
5.71438e-05
0.000100376
0.000162447
0.000325564
0.000626146
0.000996667
0.00144168
0.00193089
0.00240202
0.00280411
0.00310015
0.00328366
0.00337785
0.00341782
0.00343284
0.00343649
0.003428
0.00340161
0.00336164
0.00331933
0.00328276
0.0032451
0.00321404
0.00318626
0.00316035
0.00313593
0.00311329
0.00309303
0.00307556
0.00306089
0.00304863
0.00303779
0.0030273
0.00301549
0.00300167
0.00297926
0.00294759
0.00283544
0.00323272
4.05405e-05
4.09942e-05
4.00731e-05
4.30107e-05
5.4069e-05
7.72019e-05
0.000132206
0.000226567
0.000333513
0.000448617
0.000601886
0.000826111
0.00114052
0.00154362
0.00201389
0.00251271
0.00299243
0.00340856
0.00373366
0.00396293
0.00411434
0.00421551
0.00429568
0.00435553
0.00441606
0.00447009
0.00451523
0.00455218
0.00458302
0.00460998
0.00463468
0.0046578
0.00467949
0.00469906
0.00471589
0.00472909
0.00474024
0.00474449
0.00475633
0.00471155
0.00488697
4.01638e-05
4.02404e-05
4.03189e-05
3.93384e-05
3.79821e-05
3.50192e-05
3.06962e-05
3.00019e-05
3.26709e-05
3.74755e-05
4.45291e-05
5.58829e-05
7.78558e-05
0.000122902
0.000210335
0.000363932
0.000606598
0.000952507
0.00140184
0.00193553
0.00252031
0.00307888
0.0035553
0.00394019
0.00424882
0.0044978
0.00470331
0.00487891
0.0050348
0.00517782
0.00531198
0.00543916
0.00556004
0.00567483
0.00578334
0.00588453
0.00597948
0.00606454
0.00615326
0.00620941
0.00630087
4.01559e-05
4.01711e-05
4.02065e-05
4.02166e-05
3.98645e-05
3.87266e-05
3.58898e-05
3.14116e-05
2.67869e-05
2.33865e-05
2.1249e-05
1.94872e-05
1.71083e-05
1.33918e-05
8.37238e-06
3.92749e-06
5.41035e-06
2.30748e-05
7.35859e-05
0.000178996
0.000372486
0.000664031
0.00102663
0.00143916
0.00188816
0.002358
0.00283064
0.00329148
0.0037303
0.00414115
0.00452203
0.00487412
0.00520075
0.0055075
0.00579915
0.00607836
0.00634723
0.00660619
0.00685967
0.00709571
0.00729195
4.0101e-05
4.01043e-05
4.01135e-05
4.01225e-05
4.01477e-05
4.01522e-05
4.00269e-05
3.95582e-05
3.87941e-05
3.80113e-05
3.73629e-05
3.67818e-05
3.61086e-05
3.51169e-05
3.34098e-05
3.0319e-05
2.5769e-05
1.57955e-05
2.28819e-05
4.61792e-05
3.66042e-05
3.28774e-05
3.28738e-05
8.50086e-05
0.000176643
0.000312112
0.000497154
0.000737171
0.00103449
0.00138891
0.00179805
0.00225816
0.00276337
0.00330847
0.00388515
0.00448176
0.00508489
0.00568926
0.00628094
0.00684689
0.00740701
4.00871e-05
4.00937e-05
4.0102e-05
4.0112e-05
4.01204e-05
4.01365e-05
4.01871e-05
4.02792e-05
4.03808e-05
4.04584e-05
4.0505e-05
4.05298e-05
4.05409e-05
4.05429e-05
4.05172e-05
4.04341e-05
4.0217e-05
3.9379e-05
3.74626e-05
3.4894e-05
3.15969e-05
2.3303e-05
4.93472e-06
2.75088e-06
4.14896e-05
6.84226e-05
7.5106e-06
1.0333e-05
2.72136e-05
7.02363e-05
0.000146591
0.000267969
0.000448276
0.00070328
0.0010501
0.001504
0.00207349
0.0027726
0.00359122
0.00448596
0.00560225
4.00818e-05
4.00889e-05
4.00953e-05
4.01017e-05
4.01083e-05
4.01142e-05
4.01202e-05
4.01347e-05
4.01651e-05
4.02086e-05
4.02578e-05
4.03096e-05
4.03655e-05
4.04286e-05
4.0505e-05
4.0603e-05
4.07329e-05
4.09576e-05
4.11445e-05
4.09416e-05
4.02055e-05
4.0002e-05
3.84145e-05
3.63371e-05
3.251e-05
2.87711e-05
2.36072e-05
1.70543e-05
1.23332e-05
1.87066e-05
3.32622e-05
1.10959e-05
5.97567e-06
0.000132915
2.31913e-05
8.90333e-05
0.000219043
0.00044587
0.000818851
0.00132957
0.00227257
4.00807e-05
4.00861e-05
4.009e-05
4.00935e-05
4.00976e-05
4.01022e-05
4.0107e-05
4.01112e-05
4.01149e-05
4.01194e-05
4.01257e-05
4.01342e-05
4.01455e-05
4.01602e-05
4.01793e-05
4.02036e-05
4.02368e-05
4.02887e-05
4.03642e-05
4.04671e-05
4.06188e-05
4.08547e-05
4.11695e-05
4.11766e-05
4.11664e-05
4.05819e-05
3.99405e-05
3.93537e-05
3.75671e-05
3.52305e-05
3.18444e-05
2.78154e-05
2.11027e-05
5.69794e-06
9.44698e-06
1.93171e-05
4.06546e-05
4.68098e-06
3.9014e-05
7.29491e-05
0.00030122
4.00785e-05
4.00812e-05
4.00824e-05
4.00834e-05
4.00851e-05
4.00876e-05
4.00906e-05
4.00938e-05
4.00971e-05
4.01e-05
4.01027e-05
4.01053e-05
4.01078e-05
4.01107e-05
4.01142e-05
4.01183e-05
4.01232e-05
4.01291e-05
4.01374e-05
4.01489e-05
4.01721e-05
4.0216e-05
4.02903e-05
4.03876e-05
4.05125e-05
4.06267e-05
4.07634e-05
4.09296e-05
4.12407e-05
4.12527e-05
4.10308e-05
4.02207e-05
3.95265e-05
3.78672e-05
3.48313e-05
2.95138e-05
2.30944e-05
1.0087e-05
1.11915e-05
1.45053e-05
4.73279e-05
4.00753e-05
4.00752e-05
4.00743e-05
4.00738e-05
4.00741e-05
4.00752e-05
4.0077e-05
4.00793e-05
4.00819e-05
4.00845e-05
4.00872e-05
4.00898e-05
4.00925e-05
4.00954e-05
4.00984e-05
4.01017e-05
4.01052e-05
4.01089e-05
4.01127e-05
4.01163e-05
4.01193e-05
4.01226e-05
4.0128e-05
4.01379e-05
4.01536e-05
4.0177e-05
4.02077e-05
4.02495e-05
4.03212e-05
4.04162e-05
4.05446e-05
4.0693e-05
4.0863e-05
4.11219e-05
4.12298e-05
4.08443e-05
3.97074e-05
3.66998e-05
3.19837e-05
2.63219e-05
1.36998e-05
4.00707e-05
4.00684e-05
4.00664e-05
4.00653e-05
4.00651e-05
4.00656e-05
4.00667e-05
4.00683e-05
4.00701e-05
4.00721e-05
4.0074e-05
4.0076e-05
4.00781e-05
4.00804e-05
4.00829e-05
4.00857e-05
4.00888e-05
4.00923e-05
4.00962e-05
4.01004e-05
4.01049e-05
4.01096e-05
4.0114e-05
4.0118e-05
4.01217e-05
4.01254e-05
4.01289e-05
4.01323e-05
4.01361e-05
4.01438e-05
4.01577e-05
4.01852e-05
4.02284e-05
4.03033e-05
4.04328e-05
4.06257e-05
4.08011e-05
4.10999e-05
4.09099e-05
4.07158e-05
3.73394e-05
4.00653e-05
4.0062e-05
4.00599e-05
4.00589e-05
4.00587e-05
4.00591e-05
4.00599e-05
4.00611e-05
4.00625e-05
4.0064e-05
4.00656e-05
4.00672e-05
4.00688e-05
4.00705e-05
4.00723e-05
4.00743e-05
4.00765e-05
4.0079e-05
4.00819e-05
4.0085e-05
4.00887e-05
4.00929e-05
4.00972e-05
4.01017e-05
4.01063e-05
4.01108e-05
4.01153e-05
4.01195e-05
4.01234e-05
4.01269e-05
4.01298e-05
4.01323e-05
4.01349e-05
4.01384e-05
4.01459e-05
4.01665e-05
4.02031e-05
4.02983e-05
4.04663e-05
4.07383e-05
4.10221e-05
4.00598e-05
4.00566e-05
4.0055e-05
4.00545e-05
4.00545e-05
4.00548e-05
4.00554e-05
4.00563e-05
4.00573e-05
4.00584e-05
4.00597e-05
4.0061e-05
4.00624e-05
4.00637e-05
4.00652e-05
4.00667e-05
4.00684e-05
4.00702e-05
4.00723e-05
4.00745e-05
4.00771e-05
4.00801e-05
4.00833e-05
4.00867e-05
4.00902e-05
4.00939e-05
4.00977e-05
4.01016e-05
4.01057e-05
4.01098e-05
4.01139e-05
4.0118e-05
4.01219e-05
4.01253e-05
4.0128e-05
4.01296e-05
4.01306e-05
4.01294e-05
4.01409e-05
4.01558e-05
4.02737e-05
4.00551e-05
4.00528e-05
4.00518e-05
4.00515e-05
4.00515e-05
4.00517e-05
4.0052e-05
4.00526e-05
4.00533e-05
4.00541e-05
4.00551e-05
4.00562e-05
4.00573e-05
4.00586e-05
4.00598e-05
4.00612e-05
4.00626e-05
4.00641e-05
4.00657e-05
4.00675e-05
4.00695e-05
4.00719e-05
4.00743e-05
4.00768e-05
4.00795e-05
4.00822e-05
4.00851e-05
4.0088e-05
4.0091e-05
4.00942e-05
4.00975e-05
4.01009e-05
4.01044e-05
4.01081e-05
4.01118e-05
4.01156e-05
4.01192e-05
4.01218e-05
4.01235e-05
4.01223e-05
4.01215e-05
4.00515e-05
4.00504e-05
4.00497e-05
4.00493e-05
4.0049e-05
4.00488e-05
4.00488e-05
4.0049e-05
4.00494e-05
4.005e-05
4.00507e-05
4.00515e-05
4.00525e-05
4.00535e-05
4.00546e-05
4.00559e-05
4.00571e-05
4.00585e-05
4.006e-05
4.00616e-05
4.00633e-05
4.00653e-05
4.00673e-05
4.00694e-05
4.00716e-05
4.00739e-05
4.00762e-05
4.00786e-05
4.00811e-05
4.00836e-05
4.00862e-05
4.00888e-05
4.00916e-05
4.00944e-05
4.00974e-05
4.01005e-05
4.01037e-05
4.01071e-05
4.01102e-05
4.01141e-05
4.01151e-05
4.00492e-05
4.00491e-05
4.00483e-05
4.00474e-05
4.00466e-05
4.00461e-05
4.00458e-05
4.00457e-05
4.00457e-05
4.00459e-05
4.00462e-05
4.00466e-05
4.00471e-05
4.00477e-05
4.00484e-05
4.00491e-05
4.005e-05
4.00509e-05
4.00519e-05
4.0053e-05
4.00543e-05
4.00556e-05
4.00571e-05
4.00586e-05
4.00603e-05
4.00619e-05
4.00637e-05
4.00655e-05
4.00673e-05
4.00692e-05
4.00712e-05
4.00733e-05
4.00754e-05
4.00775e-05
4.00798e-05
4.00822e-05
4.00846e-05
4.00872e-05
4.00897e-05
4.00928e-05
4.00952e-05
4.00474e-05
4.00482e-05
4.00474e-05
4.00462e-05
4.00453e-05
4.00446e-05
4.00441e-05
4.00438e-05
4.00436e-05
4.00435e-05
4.00435e-05
4.00436e-05
4.00438e-05
4.0044e-05
4.00443e-05
4.00446e-05
4.0045e-05
4.00454e-05
4.00459e-05
4.00465e-05
4.00471e-05
4.00478e-05
4.00486e-05
4.00495e-05
4.00504e-05
4.00513e-05
4.00524e-05
4.00534e-05
4.00546e-05
4.00557e-05
4.00569e-05
4.00582e-05
4.00595e-05
4.00609e-05
4.00623e-05
4.00638e-05
4.00653e-05
4.0067e-05
4.00686e-05
4.00705e-05
4.0072e-05
4.0046e-05
4.00471e-05
4.00465e-05
4.00454e-05
4.00445e-05
4.00438e-05
4.00432e-05
4.00428e-05
4.00426e-05
4.00424e-05
4.00423e-05
4.00423e-05
4.00424e-05
4.00425e-05
4.00427e-05
4.00429e-05
4.00432e-05
4.00436e-05
4.0044e-05
4.00444e-05
4.00449e-05
4.00454e-05
4.0046e-05
4.00466e-05
4.00472e-05
4.00479e-05
4.00486e-05
4.00494e-05
4.00502e-05
4.0051e-05
4.00518e-05
4.00526e-05
4.00535e-05
4.00544e-05
4.00553e-05
4.00563e-05
4.00572e-05
4.00582e-05
4.00592e-05
4.00603e-05
4.00611e-05
4.00453e-05
4.00466e-05
4.00459e-05
4.00447e-05
4.00437e-05
4.00428e-05
4.00422e-05
4.00417e-05
4.00414e-05
4.00412e-05
4.0041e-05
4.00409e-05
4.00409e-05
4.0041e-05
4.00411e-05
4.00413e-05
4.00415e-05
4.00417e-05
4.0042e-05
4.00423e-05
4.00427e-05
4.00431e-05
4.00436e-05
4.00441e-05
4.00447e-05
4.00452e-05
4.00458e-05
4.00465e-05
4.00471e-05
4.00478e-05
4.00485e-05
4.00492e-05
4.005e-05
4.00507e-05
4.00515e-05
4.00523e-05
4.0053e-05
4.00538e-05
4.00546e-05
4.00555e-05
4.00562e-05
4.0045e-05
4.0046e-05
4.00452e-05
4.0044e-05
4.00428e-05
4.0042e-05
4.00413e-05
4.00408e-05
4.00405e-05
4.00402e-05
4.004e-05
4.00399e-05
4.00398e-05
4.00398e-05
4.00399e-05
4.004e-05
4.00401e-05
4.00402e-05
4.00404e-05
4.00407e-05
4.00409e-05
4.00413e-05
4.00416e-05
4.0042e-05
4.00424e-05
4.00429e-05
4.00433e-05
4.00438e-05
4.00444e-05
4.00449e-05
4.00455e-05
4.0046e-05
4.00466e-05
4.00472e-05
4.00479e-05
4.00485e-05
4.00491e-05
4.00498e-05
4.00504e-05
4.00511e-05
4.00517e-05
4.00447e-05
4.00454e-05
4.00444e-05
4.00432e-05
4.00422e-05
4.00414e-05
4.00407e-05
4.00402e-05
4.00399e-05
4.00396e-05
4.00394e-05
4.00392e-05
4.00391e-05
4.0039e-05
4.0039e-05
4.0039e-05
4.00391e-05
4.00392e-05
4.00393e-05
4.00394e-05
4.00396e-05
4.00398e-05
4.00401e-05
4.00404e-05
4.00407e-05
4.0041e-05
4.00414e-05
4.00418e-05
4.00422e-05
4.00426e-05
4.0043e-05
4.00435e-05
4.00439e-05
4.00444e-05
4.00449e-05
4.00454e-05
4.00459e-05
4.00464e-05
4.00469e-05
4.00474e-05
4.00479e-05
4.00444e-05
4.00447e-05
4.00436e-05
4.00424e-05
4.00415e-05
4.00408e-05
4.00403e-05
4.00399e-05
4.00396e-05
4.00393e-05
4.00391e-05
4.00389e-05
4.00387e-05
4.00386e-05
4.00385e-05
4.00385e-05
4.00385e-05
4.00385e-05
4.00385e-05
4.00386e-05
4.00387e-05
4.00388e-05
4.0039e-05
4.00392e-05
4.00394e-05
4.00396e-05
4.00399e-05
4.00402e-05
4.00405e-05
4.00408e-05
4.00412e-05
4.00415e-05
4.00419e-05
4.00422e-05
4.00426e-05
4.0043e-05
4.00434e-05
4.00438e-05
4.00442e-05
4.00445e-05
4.0045e-05
4.0044e-05
4.0044e-05
4.00428e-05
4.00417e-05
4.00409e-05
4.00403e-05
4.00399e-05
4.00396e-05
4.00394e-05
4.00392e-05
4.00391e-05
4.00389e-05
4.00387e-05
4.00386e-05
4.00384e-05
4.00383e-05
4.00383e-05
4.00382e-05
4.00382e-05
4.00382e-05
4.00382e-05
4.00383e-05
4.00383e-05
4.00384e-05
4.00386e-05
4.00387e-05
4.00389e-05
4.00391e-05
4.00393e-05
4.00396e-05
4.00398e-05
4.00401e-05
4.00403e-05
4.00406e-05
4.00409e-05
4.00412e-05
4.00415e-05
4.00418e-05
4.00421e-05
4.00424e-05
4.00428e-05
4.00435e-05
4.00431e-05
4.0042e-05
4.0041e-05
4.00403e-05
4.00399e-05
4.00396e-05
4.00394e-05
4.00393e-05
4.00392e-05
4.00391e-05
4.0039e-05
4.00389e-05
4.00388e-05
4.00387e-05
4.00385e-05
4.00384e-05
4.00383e-05
4.00382e-05
4.00381e-05
4.00381e-05
4.00381e-05
4.00381e-05
4.00381e-05
4.00382e-05
4.00382e-05
4.00383e-05
4.00384e-05
4.00386e-05
4.00387e-05
4.00389e-05
4.00391e-05
4.00393e-05
4.00395e-05
4.00397e-05
4.00399e-05
4.00402e-05
4.00404e-05
4.00406e-05
4.00408e-05
4.00412e-05
4.00428e-05
4.00423e-05
4.00412e-05
4.00403e-05
4.00398e-05
4.00395e-05
4.00393e-05
4.00392e-05
4.00392e-05
4.00392e-05
4.00392e-05
4.00391e-05
4.00391e-05
4.00391e-05
4.0039e-05
4.00389e-05
4.00388e-05
4.00387e-05
4.00386e-05
4.00385e-05
4.00383e-05
4.00383e-05
4.00382e-05
4.00382e-05
4.00381e-05
4.00381e-05
4.00382e-05
4.00382e-05
4.00383e-05
4.00384e-05
4.00385e-05
4.00386e-05
4.00387e-05
4.00388e-05
4.0039e-05
4.00391e-05
4.00393e-05
4.00394e-05
4.00396e-05
4.00397e-05
4.00401e-05
4.00421e-05
4.00414e-05
4.00404e-05
4.00396e-05
4.00392e-05
4.0039e-05
4.0039e-05
4.0039e-05
4.00391e-05
4.00391e-05
4.00392e-05
4.00392e-05
4.00393e-05
4.00393e-05
4.00393e-05
4.00393e-05
4.00392e-05
4.00392e-05
4.00391e-05
4.0039e-05
4.0039e-05
4.00388e-05
4.00387e-05
4.00386e-05
4.00385e-05
4.00384e-05
4.00384e-05
4.00384e-05
4.00384e-05
4.00384e-05
4.00384e-05
4.00384e-05
4.00385e-05
4.00386e-05
4.00387e-05
4.00388e-05
4.00389e-05
4.0039e-05
4.00391e-05
4.00391e-05
4.00394e-05
4.00412e-05
4.00405e-05
4.00396e-05
4.0039e-05
4.00387e-05
4.00386e-05
4.00387e-05
4.00388e-05
4.00389e-05
4.0039e-05
4.00392e-05
4.00393e-05
4.00394e-05
4.00395e-05
4.00395e-05
4.00396e-05
4.00396e-05
4.00396e-05
4.00396e-05
4.00395e-05
4.00395e-05
4.00394e-05
4.00394e-05
4.00393e-05
4.00392e-05
4.0039e-05
4.00389e-05
4.00388e-05
4.00388e-05
4.00387e-05
4.00387e-05
4.00387e-05
4.00387e-05
4.00387e-05
4.00387e-05
4.00387e-05
4.00388e-05
4.00388e-05
4.00389e-05
4.00389e-05
4.00391e-05
4.00403e-05
4.00396e-05
4.00388e-05
4.00383e-05
4.00381e-05
4.00382e-05
4.00383e-05
4.00385e-05
4.00387e-05
4.00389e-05
4.00391e-05
4.00393e-05
4.00394e-05
4.00395e-05
4.00397e-05
4.00397e-05
4.00398e-05
4.00399e-05
4.00399e-05
4.00399e-05
4.00399e-05
4.00399e-05
4.00399e-05
4.00398e-05
4.00398e-05
4.00397e-05
4.00396e-05
4.00395e-05
4.00394e-05
4.00393e-05
4.00392e-05
4.00391e-05
4.00391e-05
4.0039e-05
4.0039e-05
4.0039e-05
4.0039e-05
4.0039e-05
4.0039e-05
4.0039e-05
4.00391e-05
4.00394e-05
4.00386e-05
4.00379e-05
4.00376e-05
4.00376e-05
4.00377e-05
4.00379e-05
4.00381e-05
4.00384e-05
4.00386e-05
4.00389e-05
4.00391e-05
4.00393e-05
4.00395e-05
4.00397e-05
4.00398e-05
4.00399e-05
4.004e-05
4.00401e-05
4.00402e-05
4.00402e-05
4.00402e-05
4.00403e-05
4.00402e-05
4.00402e-05
4.00402e-05
4.00401e-05
4.00401e-05
4.004e-05
4.00399e-05
4.00399e-05
4.00398e-05
4.00397e-05
4.00396e-05
4.00395e-05
4.00394e-05
4.00394e-05
4.00393e-05
4.00393e-05
4.00393e-05
4.00394e-05
4.00383e-05
4.00376e-05
4.00371e-05
4.00369e-05
4.00369e-05
4.00371e-05
4.00374e-05
4.00376e-05
4.00379e-05
4.00382e-05
4.00385e-05
4.00388e-05
4.00391e-05
4.00393e-05
4.00395e-05
4.00397e-05
4.00399e-05
4.004e-05
4.00401e-05
4.00403e-05
4.00404e-05
4.00404e-05
4.00405e-05
4.00405e-05
4.00405e-05
4.00405e-05
4.00405e-05
4.00405e-05
4.00404e-05
4.00404e-05
4.00403e-05
4.00403e-05
4.00402e-05
4.00401e-05
4.00401e-05
4.004e-05
4.004e-05
4.00399e-05
4.00399e-05
4.00399e-05
4.00399e-05
4.00372e-05
4.00366e-05
4.00361e-05
4.00361e-05
4.00362e-05
4.00364e-05
4.00367e-05
4.0037e-05
4.00374e-05
4.00377e-05
4.0038e-05
4.00383e-05
4.00386e-05
4.00389e-05
4.00392e-05
4.00394e-05
4.00396e-05
4.00398e-05
4.004e-05
4.00401e-05
4.00403e-05
4.00404e-05
4.00405e-05
4.00405e-05
4.00406e-05
4.00406e-05
4.00406e-05
4.00406e-05
4.00406e-05
4.00406e-05
4.00406e-05
4.00406e-05
4.00405e-05
4.00405e-05
4.00404e-05
4.00404e-05
4.00404e-05
4.00403e-05
4.00403e-05
4.00403e-05
4.00403e-05
4.0036e-05
4.00355e-05
4.00351e-05
4.00351e-05
4.00353e-05
4.00356e-05
4.00359e-05
4.00363e-05
4.00366e-05
4.0037e-05
4.00373e-05
4.00377e-05
4.0038e-05
4.00383e-05
4.00386e-05
4.00389e-05
4.00391e-05
4.00394e-05
4.00396e-05
4.00398e-05
4.004e-05
4.00401e-05
4.00402e-05
4.00403e-05
4.00404e-05
4.00405e-05
4.00405e-05
4.00406e-05
4.00406e-05
4.00406e-05
4.00406e-05
4.00406e-05
4.00406e-05
4.00405e-05
4.00405e-05
4.00405e-05
4.00405e-05
4.00405e-05
4.00405e-05
4.00405e-05
4.00405e-05
4.00347e-05
4.00343e-05
4.00341e-05
4.00341e-05
4.00344e-05
4.00347e-05
4.0035e-05
4.00353e-05
4.00357e-05
4.00361e-05
4.00364e-05
4.00368e-05
4.00371e-05
4.00375e-05
4.00378e-05
4.00381e-05
4.00384e-05
4.00387e-05
4.00389e-05
4.00392e-05
4.00394e-05
4.00396e-05
4.00397e-05
4.00399e-05
4.004e-05
4.00401e-05
4.00402e-05
4.00402e-05
4.00403e-05
4.00403e-05
4.00403e-05
4.00403e-05
4.00403e-05
4.00403e-05
4.00403e-05
4.00403e-05
4.00403e-05
4.00404e-05
4.00404e-05
4.00404e-05
4.00404e-05
4.00333e-05
4.0033e-05
4.00329e-05
4.0033e-05
4.00332e-05
4.00335e-05
4.00338e-05
4.00342e-05
4.00345e-05
4.00349e-05
4.00353e-05
4.00357e-05
4.0036e-05
4.00364e-05
4.00368e-05
4.00371e-05
4.00374e-05
4.00377e-05
4.0038e-05
4.00383e-05
4.00385e-05
4.00387e-05
4.00389e-05
4.00391e-05
4.00392e-05
4.00394e-05
4.00395e-05
4.00396e-05
4.00396e-05
4.00397e-05
4.00398e-05
4.00398e-05
4.00398e-05
4.00398e-05
4.00399e-05
4.00399e-05
4.00399e-05
4.00399e-05
4.004e-05
4.004e-05
4.004e-05
4.00319e-05
4.00316e-05
4.00315e-05
4.00317e-05
4.00319e-05
4.00322e-05
4.00325e-05
4.00328e-05
4.00332e-05
4.00335e-05
4.00339e-05
4.00343e-05
4.00347e-05
4.0035e-05
4.00354e-05
4.00358e-05
4.00361e-05
4.00365e-05
4.00368e-05
4.00371e-05
4.00373e-05
4.00376e-05
4.00378e-05
4.0038e-05
4.00382e-05
4.00384e-05
4.00385e-05
4.00386e-05
4.00387e-05
4.00388e-05
4.00389e-05
4.00389e-05
4.0039e-05
4.0039e-05
4.00391e-05
4.00391e-05
4.00392e-05
4.00392e-05
4.00392e-05
4.00393e-05
4.00393e-05
4.00303e-05
4.00301e-05
4.00301e-05
4.00302e-05
4.00304e-05
4.00306e-05
4.00309e-05
4.00312e-05
4.00315e-05
4.00319e-05
4.00322e-05
4.00326e-05
4.0033e-05
4.00334e-05
4.00338e-05
4.00342e-05
4.00345e-05
4.00349e-05
4.00352e-05
4.00356e-05
4.00359e-05
4.00361e-05
4.00364e-05
4.00366e-05
4.00368e-05
4.0037e-05
4.00372e-05
4.00373e-05
4.00375e-05
4.00376e-05
4.00377e-05
4.00378e-05
4.00378e-05
4.00379e-05
4.0038e-05
4.0038e-05
4.00381e-05
4.00381e-05
4.00382e-05
4.00382e-05
4.00383e-05
4.00286e-05
4.00284e-05
4.00284e-05
4.00285e-05
4.00286e-05
4.00288e-05
4.0029e-05
4.00293e-05
4.00296e-05
4.00299e-05
4.00303e-05
4.00307e-05
4.00311e-05
4.00315e-05
4.00319e-05
4.00323e-05
4.00327e-05
4.0033e-05
4.00334e-05
4.00337e-05
4.0034e-05
4.00343e-05
4.00346e-05
4.00349e-05
4.00351e-05
4.00353e-05
4.00355e-05
4.00357e-05
4.00358e-05
4.0036e-05
4.00361e-05
4.00362e-05
4.00363e-05
4.00364e-05
4.00365e-05
4.00365e-05
4.00366e-05
4.00367e-05
4.00367e-05
4.00368e-05
4.00369e-05
4.00268e-05
4.00266e-05
4.00266e-05
4.00266e-05
4.00267e-05
4.00268e-05
4.00269e-05
4.00272e-05
4.00274e-05
4.00277e-05
4.00281e-05
4.00285e-05
4.00289e-05
4.00293e-05
4.00297e-05
4.00301e-05
4.00305e-05
4.00308e-05
4.00312e-05
4.00316e-05
4.00319e-05
4.00322e-05
4.00325e-05
4.00328e-05
4.0033e-05
4.00332e-05
4.00335e-05
4.00336e-05
4.00338e-05
4.0034e-05
4.00341e-05
4.00342e-05
4.00344e-05
4.00345e-05
4.00346e-05
4.00346e-05
4.00347e-05
4.00348e-05
4.00349e-05
4.0035e-05
4.0035e-05
4.00248e-05
4.00247e-05
4.00246e-05
4.00245e-05
4.00245e-05
4.00245e-05
4.00246e-05
4.00248e-05
4.0025e-05
4.00253e-05
4.00256e-05
4.0026e-05
4.00263e-05
4.00267e-05
4.00271e-05
4.00275e-05
4.00279e-05
4.00283e-05
4.00287e-05
4.0029e-05
4.00293e-05
4.00297e-05
4.003e-05
4.00302e-05
4.00305e-05
4.00307e-05
4.0031e-05
4.00312e-05
4.00314e-05
4.00315e-05
4.00317e-05
4.00318e-05
4.0032e-05
4.00321e-05
4.00322e-05
4.00323e-05
4.00324e-05
4.00325e-05
4.00326e-05
4.00327e-05
4.00328e-05
4.00227e-05
4.00226e-05
4.00224e-05
4.00222e-05
4.00221e-05
4.0022e-05
4.00221e-05
4.00222e-05
4.00224e-05
4.00226e-05
4.00229e-05
4.00232e-05
4.00235e-05
4.00239e-05
4.00242e-05
4.00246e-05
4.0025e-05
4.00253e-05
4.00257e-05
4.0026e-05
4.00264e-05
4.00267e-05
4.0027e-05
4.00273e-05
4.00275e-05
4.00278e-05
4.0028e-05
4.00282e-05
4.00284e-05
4.00286e-05
4.00288e-05
4.00289e-05
4.00291e-05
4.00292e-05
4.00293e-05
4.00294e-05
4.00295e-05
4.00296e-05
4.00297e-05
4.00298e-05
4.00299e-05
4.00204e-05
4.00202e-05
4.002e-05
4.00197e-05
4.00195e-05
4.00194e-05
4.00194e-05
4.00194e-05
4.00195e-05
4.00197e-05
4.00199e-05
4.00201e-05
4.00204e-05
4.00207e-05
4.0021e-05
4.00213e-05
4.00216e-05
4.0022e-05
4.00223e-05
4.00226e-05
4.00229e-05
4.00232e-05
4.00235e-05
4.00238e-05
4.0024e-05
4.00243e-05
4.00245e-05
4.00247e-05
4.00249e-05
4.00251e-05
4.00253e-05
4.00254e-05
4.00256e-05
4.00257e-05
4.00259e-05
4.0026e-05
4.00261e-05
4.00263e-05
4.00264e-05
4.00265e-05
4.00266e-05
4.00179e-05
4.00177e-05
4.00174e-05
4.00171e-05
4.00168e-05
4.00166e-05
4.00165e-05
4.00164e-05
4.00164e-05
4.00165e-05
4.00166e-05
4.00167e-05
4.00169e-05
4.00171e-05
4.00174e-05
4.00176e-05
4.00179e-05
4.00181e-05
4.00184e-05
4.00187e-05
4.00189e-05
4.00192e-05
4.00195e-05
4.00197e-05
4.00199e-05
4.00202e-05
4.00204e-05
4.00206e-05
4.00208e-05
4.00209e-05
4.00211e-05
4.00213e-05
4.00214e-05
4.00215e-05
4.00217e-05
4.00218e-05
4.00219e-05
4.0022e-05
4.00221e-05
4.00221e-05
4.00222e-05
4.00152e-05
4.00149e-05
4.00146e-05
4.00142e-05
4.00139e-05
4.00137e-05
4.00135e-05
4.00133e-05
4.00132e-05
4.00132e-05
4.00131e-05
4.00131e-05
4.00132e-05
4.00133e-05
4.00134e-05
4.00135e-05
4.00137e-05
4.00138e-05
4.0014e-05
4.00142e-05
4.00143e-05
4.00145e-05
4.00147e-05
4.00149e-05
4.0015e-05
4.00152e-05
4.00154e-05
4.00156e-05
4.00157e-05
4.00159e-05
4.00161e-05
4.00162e-05
4.00164e-05
4.00166e-05
4.00167e-05
4.00169e-05
4.0017e-05
4.00172e-05
4.00174e-05
4.00175e-05
4.00176e-05
4.00122e-05
4.0012e-05
4.00116e-05
4.00113e-05
4.00109e-05
4.00107e-05
4.00104e-05
4.00102e-05
4.001e-05
4.00098e-05
4.00096e-05
4.00095e-05
4.00093e-05
4.00092e-05
4.00092e-05
4.00091e-05
4.00091e-05
4.00091e-05
4.00091e-05
4.00091e-05
4.00092e-05
4.00093e-05
4.00094e-05
4.00095e-05
4.00096e-05
4.00098e-05
4.00099e-05
4.001e-05
4.00102e-05
4.00103e-05
4.00104e-05
4.00105e-05
4.00106e-05
4.00107e-05
4.00108e-05
4.00109e-05
4.00109e-05
4.0011e-05
4.0011e-05
4.0011e-05
4.0011e-05
4.00091e-05
4.00088e-05
4.00085e-05
4.00082e-05
4.00079e-05
4.00076e-05
4.00073e-05
4.00071e-05
4.00068e-05
4.00065e-05
4.00062e-05
4.00059e-05
4.00056e-05
4.00053e-05
4.0005e-05
4.00048e-05
4.00046e-05
4.00044e-05
4.00043e-05
4.00042e-05
4.00041e-05
4.0004e-05
4.0004e-05
4.00039e-05
4.00039e-05
4.00039e-05
4.00039e-05
4.00039e-05
4.00039e-05
4.00039e-05
4.00039e-05
4.0004e-05
4.0004e-05
4.00041e-05
4.00042e-05
4.00043e-05
4.00045e-05
4.00046e-05
4.00048e-05
4.0005e-05
4.00052e-05
4.00056e-05
4.00054e-05
4.00052e-05
4.0005e-05
4.00048e-05
4.00046e-05
4.00044e-05
4.00041e-05
4.00038e-05
4.00035e-05
4.00031e-05
4.00026e-05
4.00022e-05
4.00019e-05
4.00018e-05
4.00018e-05
4.00019e-05
4.00021e-05
4.00024e-05
4.00026e-05
4.00028e-05
4.0003e-05
4.00031e-05
4.00033e-05
4.00035e-05
4.00037e-05
4.00039e-05
4.0004e-05
4.00042e-05
4.00044e-05
4.00045e-05
4.00046e-05
4.00048e-05
4.00049e-05
4.0005e-05
4.00052e-05
4.00053e-05
4.00054e-05
4.00055e-05
4.00056e-05
4.00057e-05
4.00019e-05
4.00019e-05
4.00018e-05
4.00017e-05
4.00017e-05
4.00016e-05
4.00015e-05
4.00014e-05
4.00013e-05
4.00011e-05
4.00008e-05
4.00005e-05
4.00004e-05
4.00007e-05
4.00011e-05
4.00017e-05
4.00024e-05
4.00033e-05
4.00042e-05
4.00052e-05
4.00063e-05
4.00075e-05
4.00087e-05
4.00099e-05
4.00111e-05
4.00124e-05
4.00136e-05
4.00147e-05
4.00157e-05
4.00166e-05
4.00174e-05
4.00182e-05
4.00188e-05
4.00193e-05
4.00198e-05
4.00202e-05
4.00205e-05
4.00208e-05
4.0021e-05
4.00212e-05
4.00212e-05
0.00354665
0.00486325
0.0054856
0.00584688
0.00606873
0.00617559
0.00617627
0.00607839
0.00588901
0.00560759
0.00520864
0.00468225
0.0040848
0.00347592
0.0028274
0.00182938
0.000555531
0.000274454
0.00244851
0.00560734
0.00762322
0.0081172
0.00751147
0.00620865
0.0044804
0.00261002
0.00101063
0.000112721
8.3428e-05
9.61311e-06
1.56733e-06
3.12026e-05
4.48339e-05
4.40677e-05
4.08132e-05
3.96587e-05
3.98968e-05
4.02238e-05
4.02994e-05
4.02621e-05
4.02316e-05
4.02242e-05
4.02232e-05
4.02199e-05
4.02146e-05
4.02093e-05
4.02058e-05
4.02007e-05
4.01944e-05
4.01884e-05
4.01836e-05
4.01806e-05
4.01797e-05
4.01813e-05
4.01855e-05
4.0192e-05
4.02006e-05
4.02161e-05
4.02279e-05
4.02411e-05
4.02548e-05
4.02679e-05
4.02792e-05
4.02878e-05
4.02931e-05
4.02945e-05
4.02913e-05
4.02834e-05
4.02707e-05
4.02537e-05
4.02334e-05
4.02118e-05
4.01913e-05
4.01737e-05
0.00485755
0.00601124
0.00673397
0.00718323
0.00745708
0.00760937
0.00766917
0.00764898
0.00755269
0.00737694
0.0070991
0.00669523
0.00620244
0.00568567
0.0051702
0.00415048
0.00226078
0.00176098
0.00447423
0.00824942
0.0106648
0.0113854
0.0109158
0.009694
0.00796805
0.00589045
0.00366827
0.00164837
0.000372482
2.78144e-05
1.62559e-05
8.03753e-06
2.15925e-05
4.1082e-05
4.52408e-05
4.20726e-05
3.98868e-05
3.96892e-05
4.01092e-05
4.03269e-05
4.03158e-05
4.02549e-05
4.02267e-05
4.02242e-05
4.02244e-05
4.02194e-05
4.02127e-05
4.02061e-05
4.01995e-05
4.01938e-05
4.01896e-05
4.01878e-05
4.01889e-05
4.01935e-05
4.02012e-05
4.02117e-05
4.02243e-05
4.02351e-05
4.02469e-05
4.026e-05
4.02739e-05
4.02871e-05
4.0298e-05
4.03057e-05
4.03094e-05
4.03087e-05
4.0303e-05
4.02923e-05
4.02769e-05
4.02576e-05
4.02359e-05
4.02142e-05
4.01948e-05
4.01806e-05
0.00613104
0.00668597
0.00739317
0.00794591
0.00829542
0.00852019
0.00867324
0.00876721
0.00879807
0.00876078
0.00864044
0.00841021
0.00808559
0.0077274
0.00741233
0.00670756
0.00494354
0.00378472
0.00565017
0.00932935
0.0122522
0.0135814
0.0136133
0.0127791
0.0113599
0.00950471
0.00731134
0.00490299
0.00257637
0.00091838
7.0603e-05
9.95427e-05
2.1269e-05
1.33766e-05
2.77479e-05
4.23745e-05
4.40071e-05
4.12759e-05
3.97326e-05
3.97166e-05
4.01145e-05
4.03191e-05
4.03163e-05
4.02569e-05
4.02225e-05
4.02149e-05
4.02159e-05
4.02145e-05
4.02087e-05
4.0202e-05
4.01978e-05
4.0197e-05
4.01999e-05
4.02065e-05
4.02166e-05
4.02298e-05
4.02459e-05
4.02579e-05
4.02694e-05
4.02817e-05
4.02949e-05
4.03075e-05
4.03177e-05
4.03243e-05
4.03262e-05
4.03232e-05
4.03148e-05
4.03012e-05
4.02831e-05
4.02618e-05
4.02391e-05
4.02177e-05
4.01997e-05
4.01891e-05
0.00727733
0.00798607
0.00841069
0.00864895
0.00876086
0.00892077
0.00912074
0.00930757
0.00944738
0.009539
0.00958449
0.00955716
0.00944614
0.00929041
0.00918968
0.00888398
0.0076245
0.00615477
0.00689276
0.00996377
0.0131576
0.0151281
0.0157981
0.0154986
0.0145233
0.0130517
0.01118
0.00895922
0.00645722
0.00391226
0.00178281
0.000455258
7.4087e-05
1.30594e-05
1.24022e-05
7.38742e-06
3.19635e-05
4.35202e-05
4.43286e-05
4.16443e-05
3.9954e-05
3.97296e-05
4.00591e-05
4.02997e-05
4.03341e-05
4.02729e-05
4.02198e-05
4.02031e-05
4.02063e-05
4.0211e-05
4.02117e-05
4.02113e-05
4.02135e-05
4.02204e-05
4.0232e-05
4.02473e-05
4.02664e-05
4.02824e-05
4.02949e-05
4.03063e-05
4.03179e-05
4.0329e-05
4.0338e-05
4.03432e-05
4.03433e-05
4.03377e-05
4.03267e-05
4.03104e-05
4.029e-05
4.0267e-05
4.02436e-05
4.02227e-05
4.02063e-05
4.01989e-05
0.00790772
0.00849342
0.00895147
0.0092816
0.0094744
0.00957854
0.00964176
0.00968417
0.00969394
0.00974095
0.00986146
0.00999093
0.0100728
0.0101148
0.0102181
0.0102775
0.00959619
0.00837723
0.00835065
0.0104743
0.0135177
0.0159741
0.0173236
0.0176718
0.0172609
0.0162845
0.0148617
0.013054
0.0108837
0.00838099
0.00572349
0.00321044
0.00137847
0.000276956
2.4448e-05
1.29598e-05
8.16758e-06
8.07413e-06
3.00222e-05
4.29499e-05
4.48037e-05
4.23275e-05
4.02624e-05
3.96713e-05
3.98949e-05
4.02037e-05
4.0323e-05
4.02959e-05
4.02365e-05
4.02047e-05
4.0204e-05
4.02176e-05
4.02322e-05
4.02441e-05
4.02554e-05
4.0269e-05
4.02874e-05
4.03063e-05
4.03219e-05
4.03337e-05
4.03435e-05
4.03521e-05
4.03588e-05
4.0362e-05
4.036e-05
4.03523e-05
4.03388e-05
4.03203e-05
4.0298e-05
4.02737e-05
4.02499e-05
4.02295e-05
4.02143e-05
4.02098e-05
0.00766927
0.00791718
0.00821394
0.00856602
0.00894362
0.00929631
0.00959144
0.00981793
0.0099678
0.0100571
0.0101195
0.0101662
0.0101684
0.0102002
0.0103827
0.0106666
0.0105676
0.00994375
0.00961873
0.0108138
0.013339
0.0159959
0.0179547
0.019016
0.0192848
0.0189227
0.0180588
0.0167754
0.0151124
0.0130727
0.010676
0.00799897
0.00528087
0.00285487
0.00116299
0.000170084
0.000246116
1.2812e-05
8.79776e-06
1.55131e-06
2.4608e-05
3.94565e-05
4.43478e-05
4.30596e-05
4.08752e-05
3.97809e-05
3.97199e-05
4.00289e-05
4.0262e-05
4.03179e-05
4.02775e-05
4.02325e-05
4.02208e-05
4.02386e-05
4.02679e-05
4.02953e-05
4.03179e-05
4.03372e-05
4.03527e-05
4.03642e-05
4.03722e-05
4.03776e-05
4.03808e-05
4.03809e-05
4.03765e-05
4.03665e-05
4.0351e-05
4.03308e-05
4.03072e-05
4.02823e-05
4.02583e-05
4.02384e-05
4.02241e-05
4.02217e-05
0.0057192
0.0057228
0.00580775
0.00602465
0.00638474
0.00686854
0.00743041
0.00802362
0.00859836
0.00911126
0.00953806
0.00987254
0.0101032
0.0102391
0.0103593
0.010549
0.010626
0.0104097
0.0101311
0.010659
0.0124676
0.0149899
0.0173738
0.0191398
0.0201804
0.0205615
0.0203878
0.0197483
0.0187013
0.0172715
0.01546
0.013263
0.0107171
0.00794331
0.00518996
0.00277866
0.00114886
0.000182365
6.02967e-06
1.81666e-05
6.60447e-06
1.12283e-05
2.43305e-05
3.58085e-05
4.34264e-05
4.36962e-05
4.16784e-05
4.00858e-05
3.96079e-05
3.9822e-05
4.01615e-05
4.03473e-05
4.03718e-05
4.03285e-05
4.02936e-05
4.02933e-05
4.03198e-05
4.03547e-05
4.03839e-05
4.04017e-05
4.04092e-05
4.041e-05
4.04072e-05
4.0402e-05
4.03935e-05
4.03808e-05
4.03634e-05
4.03419e-05
4.03177e-05
4.02927e-05
4.0269e-05
4.02497e-05
4.02358e-05
4.02346e-05