/*--------------------------------*- C++ -*----------------------------------*\
| =========                 |                                                 |
| \\      /  F ield         | OpenFOAM: The Open Source CFD Toolbox           |
|  \\    /   O peration     | Version:  2312                                  |
|   \\  /    A nd           | Website:  www.openfoam.com                      |
|    \\/     M anipulation  |                                                 |
\*---------------------------------------------------------------------------*/
FoamFile
{
    version     2.0;
    format      ascii;
    arch        "LSB;label=32;scalar=64";
    class       volScalarField;
    location    "100";
    object      p;
}
// * * * * * * * * * * * * * * * * * * * * * * * * * * * * * * * * * * * * * //

dimensions      [0 2 -2 0 0 0 0];

internalField   nonuniform List<scalar> 
11040
(
-393.453
-768.581
-819.46
-736.518
-683.618
-671.26
-664.298
-643.144
-603.413
-550.492
-503.154
-469.241
-443.87
-421.566
-400.306
-379.824
-359.879
-339.997
-319.769
-298.846
-277.04
-254.72
-233.171
-213.829
-196.247
-179.512
-163.439
-147.913
-132.849
-118.106
-103.615
-89.3033
-75.1435
-61.1005
-47.2167
-33.6061
-20.5374
-8.06881
3.06625
13.5832
19.748
-204.727
-466.895
-593.017
-628.855
-645.077
-659.83
-663.183
-647.556
-611.231
-559.941
-511.202
-474.552
-447.183
-423.845
-401.998
-381.084
-360.812
-340.706
-320.34
-299.356
-277.548
-255.302
-233.811
-214.422
-196.776
-180.01
-163.914
-148.374
-133.298
-118.55
-104.057
-89.7472
-75.5904
-61.5489
-47.6634
-34.0445
-20.9578
-8.44583
2.716
13.4346
18.8003
-96.9539
-316.512
-490.756
-575.866
-606.007
-620.599
-628.76
-623.015
-596.746
-553.44
-508.178
-471.991
-444.699
-421.779
-400.393
-379.829
-359.851
-340.02
-319.895
-299.108
-277.466
-255.407
-234.034
-214.612
-196.925
-180.16
-164.071
-148.54
-133.476
-118.743
-104.268
-89.9793
-75.8456
-61.8279
-47.9629
-34.3595
-21.2799
-8.75352
2.40922
13.3545
18.8542
-38.0787
-199.324
-361.858
-471.745
-527.439
-556.603
-574.415
-578.946
-565.314
-534.723
-497.691
-464.821
-438.678
-416.572
-395.964
-376.048
-356.619
-337.295
-317.651
-297.32
-276.128
-254.563
-233.609
-214.365
-196.775
-180.112
-164.099
-148.626
-133.609
-118.92
-104.484
-90.2364
-76.1464
-62.1749
-48.3525
-34.7857
-21.73
-9.20626
1.96478
13.0991
18.8638
-4.20552
-121.389
-253.679
-367.888
-445.494
-493.113
-522.309
-536.206
-533.147
-513.593
-484.532
-455.274
-430.339
-409.015
-389.268
-370.143
-351.389
-332.708
-313.709
-294.032
-273.482
-252.609
-232.296
-213.385
-195.976
-179.49
-163.634
-148.305
-133.424
-118.872
-104.566
-90.4472
-76.4832
-62.636
-48.9286
-35.4611
-22.4763
-9.9903
1.18545
12.4522
18.3378
12.9306
-72.9677
-174.345
-276.44
-360.633
-420.605
-460.691
-484.602
-492.457
-484.452
-465.026
-441.627
-419.57
-399.918
-381.524
-363.496
-345.584
-327.598
-309.233
-290.169
-270.21
-249.987
-230.333
-211.82
-194.654
-178.409
-162.783
-147.663
-132.976
-118.614
-104.493
-90.557
-76.7794
-63.1273
-49.6196
-36.3454
-23.523
-11.1599
-0.03164
11.2473
17.1492
21.1125
-43.2902
-118.899
-201.298
-279.386
-343.83
-392.374
-425.897
-444.543
-448.272
-439.556
-423.737
-405.972
-388.711
-371.997
-355.319
-338.479
-321.383
-303.821
-285.523
-266.301
-246.829
-227.894
-209.859
-192.984
-177.002
-161.628
-146.748
-132.298
-118.19
-104.341
-90.6942
-77.2237
-63.8963
-50.7243
-37.7776
-25.2341
-13.0748
-2.01143
9.20579
15.3985
23.8714
-25.6532
-82.228
-145.788
-211.559
-272.539
-323.875
-363.509
-390.534
-404.39
-406.046
-398.826
-386.925
-373.349
-359.184
-344.492
-329.237
-313.426
-296.972
-279.692
-261.432
-242.879
-224.786
-207.373
-190.906
-175.257
-160.194
-145.598
-131.419
-117.592
-104.045
-90.7319
-77.6352
-64.7321
-52.0423
-39.6273
-27.6254
-15.961
-5.19953
5.68179
12.8757
23.5674
-15.3771
-58.3988
-106.656
-158.811
-211.146
-259.557
-300.856
-332.958
-354.545
-365.38
-367.004
-362.174
-353.602
-342.958
-330.915
-317.736
-303.585
-288.522
-272.488
-255.389
-237.913
-220.788
-204.143
-188.227
-173.02
-158.361
-144.141
-130.312
-116.832
-103.646
-90.7156
-78.0295
-65.5732
-53.3789
-41.5216
-30.1304
-19.1334
-8.91056
1.17439
9.27599
21.538
-9.69246
-43.0991
-79.9237
-120.252
-162.597
-204.519
-243.316
-276.588
-302.466
-319.883
-329.053
-331.299
-328.473
-322.214
-313.556
-303.066
-291.093
-277.843
-263.395
-247.748
-231.577
-215.602
-199.911
-184.728
-170.111
-155.978
-142.244
-128.871
-115.833
-103.097
-90.6371
-78.4466
-66.5136
-54.8725
-43.6041
-32.8208
-22.4828
-12.816
-3.60658
4.42281
18.6496
-6.80005
-33.2545
-61.7532
-92.7912
-125.997
-160.256
-193.882
-224.969
-251.674
-272.543
-286.977
-295.207
-298.071
-296.689
-292.049
-284.862
-275.616
-264.649
-252.171
-238.289
-223.68
-209.055
-194.51
-180.255
-166.399
-152.932
-139.813
-127.017
-114.534
-102.352
-90.4599
-78.8598
-67.5441
-56.5446
-45.9436
-35.8354
-26.2051
-17.1876
-8.79757
-1.41334
15.443
-5.56541
-26.8816
-49.3123
-73.3926
-99.19
-126.332
-153.977
-180.92
-205.761
-227.133
-244.111
-256.29
-263.722
-266.866
-266.357
-262.799
-256.694
-248.438
-238.324
-226.557
-213.797
-200.758
-187.582
-174.48
-161.595
-148.979
-136.637
-124.568
-112.78
-101.278
-90.0681
-79.1641
-68.5638
-58.2996
-48.4483
-39.094
-30.2316
-21.9537
-14.3341
-7.59884
12.2664
-5.25153
-22.6703
-40.6082
-59.5279
-79.6274
-100.865
-122.9
-145.098
-166.572
-186.304
-203.424
-217.3
-227.551
-234.124
-237.22
-237.168
-234.328
-229.044
-221.613
-212.281
-201.663
-190.465
-178.895
-167.182
-155.497
-143.94
-132.559
-121.386
-110.445
-99.7624
-89.3589
-79.2598
-69.4722
-60.0274
-50.9959
-42.449
-34.3846
-26.8679
-19.9763
-13.8411
9.32248
-5.39414
-19.7841
-34.3257
-49.3918
-65.1938
-81.8098
-99.1447
-116.909
-134.615
-151.606
-167.24
-180.937
-192.191
-200.681
-206.293
-209.068
-209.153
-206.748
-202.074
-195.346
-187.078
-177.933
-168.185
-158.084
-147.824
-137.538
-127.314
-117.215
-107.288
-97.5748
-88.1114
-78.9337
-70.0564
-61.5117
-53.3615
-45.6657
-38.4198
-31.6715
-25.4856
-19.9408
6.72199
-5.70342
-17.6875
-29.6048
-41.7461
-54.2999
-67.3744
-80.9765
-94.9944
-109.184
-123.166
-136.529
-148.853
-159.693
-168.671
-175.523
-180.108
-182.386
-182.396
-180.233
-176.032
-170.153
-163.17
-155.387
-147.068
-138.418
-129.594
-120.712
-111.858
-103.104
-94.5034
-86.1075
-77.9573
-70.0781
-62.4998
-55.2805
-48.4666
-42.0534
-36.0714
-30.572
-25.5984
4.54223
-5.9806
-16.0204
-25.8718
-35.7566
-45.8333
-56.2072
-66.9203
-77.9409
-89.1559
-100.36
-111.31
-121.74
-131.329
-139.759
-146.752
-152.094
-155.644
-157.328
-157.13
-155.084
-151.387
-146.482
-140.663
-134.179
-127.234
-119.992
-112.584
-105.111
-97.6549
-90.2858
-83.0604
-76.0289
-69.2183
-62.6631
-56.411
-50.5035
-44.9301
-39.714
-34.8904
-30.4858
2.83267
-6.08862
-14.5257
-22.7141
-30.8209
-38.9772
-47.2764
-55.7673
-64.4503
-73.2765
-82.1364
-90.8954
-99.3944
-107.424
-114.757
-121.168
-126.454
-130.445
-133.019
-134.093
-133.631
-131.693
-128.584
-124.546
-119.8
-114.522
-108.873
-102.975
-96.936
-90.8429
-84.7696
-78.7755
-72.9131
-67.2125
-61.7079
-56.4403
-51.4445
-46.7109
-42.2566
-38.1087
-34.2827
1.57988
-6.05471
-13.2275
-20.1281
-26.883
-33.6024
-40.3671
-47.2222
-54.1788
-61.2161
-68.2734
-75.2739
-82.1231
-88.6882
-94.8147
-100.34
-105.103
-108.955
-111.77
-113.447
-113.918
-113.161
-111.366
-108.722
-105.395
-101.539
-97.2846
-92.747
-88.0239
-83.1956
-78.3345
-73.497
-68.7348
-64.077
-59.5573
-55.2098
-51.0655
-47.1167
-43.3787
-39.8725
-36.6077
0.685826
-5.94082
-12.1355
-18.0518
-23.787
-29.4362
-35.0695
-40.7266
-46.4215
-52.1463
-57.8651
-63.5319
-69.0883
-74.4484
-79.5079
-84.1522
-88.2624
-91.7216
-94.4213
-96.2666
-97.1841
-97.1167
-96.1803
-94.5086
-92.2308
-89.4621
-86.3118
-82.8765
-79.2406
-75.4753
-71.6414
-67.7939
-63.9764
-60.22
-56.5522
-53.0055
-49.6038
-46.3453
-43.2409
-40.3107
-37.5579
0.0599778
-5.75578
-11.1724
-16.3134
-21.2559
-26.0832
-30.8574
-35.6125
-40.363
-45.1065
-49.821
-54.477
-59.0367
-63.4422
-67.6217
-71.4945
-74.9744
-77.9733
-80.406
-82.1932
-83.2685
-83.5651
-83.1527
-82.131
-80.5885
-78.6183
-76.303
-73.7239
-70.9462
-68.0338
-65.0374
-62.0041
-58.9709
-55.9667
-53.0151
-50.1445
-47.374
-44.7048
-42.146
-39.7149
-37.4135
-0.373056
-5.52245
-10.3034
-14.8181
-19.1258
-23.3031
-27.4031
-31.4572
-35.4773
-39.4655
-43.4064
-47.2811
-51.0631
-54.7131
-58.1794
-61.4055
-64.3281
-66.8828
-69.0044
-70.6308
-71.7078
-72.1707
-72.0666
-71.4627
-70.4283
-69.0289
-67.3328
-65.4004
-63.2899
-61.0475
-58.7186
-56.3395
-53.9439
-51.5542
-49.1931
-46.8817
-44.6386
-42.4633
-40.3674
-38.3623
-36.4527
-0.666317
-5.25595
-9.50849
-13.5044
-17.2932
-20.9425
-24.5016
-27.996
-31.4384
-34.8308
-38.1642
-41.4243
-44.5937
-47.6427
-50.5354
-53.2298
-55.6807
-57.8399
-59.6592
-61.0912
-62.0932
-62.6108
-62.674
-62.336
-61.6431
-60.6487
-59.4033
-57.9559
-56.3496
-54.625
-52.8168
-50.9542
-49.0653
-47.1691
-45.2847
-43.4292
-41.6181
-39.8519
-38.1408
-36.4942
-34.9162
-0.855775
-4.97052
-8.77574
-12.3364
-15.6924
-18.9062
-22.0214
-25.0608
-28.0359
-30.9497
-33.7962
-36.5652
-39.244
-41.8111
-44.2398
-46.4994
-48.5567
-50.3764
-51.9225
-53.1598
-54.0559
-54.565
-54.7127
-54.5369
-54.0745
-53.3629
-52.4437
-51.3526
-50.1267
-48.7956
-47.3892
-45.9299
-44.4401
-42.9356
-41.4325
-39.9444
-38.4841
-37.0522
-35.658
-34.3083
-33.0079
-0.969432
-4.67535
-8.09833
-11.2879
-14.2787
-17.1267
-19.8727
-22.5356
-25.1269
-27.6493
-30.0997
-32.4701
-34.7519
-36.9283
-38.98
-40.8839
-42.6157
-44.1491
-45.4579
-46.5157
-47.2986
-47.7709
-47.9532
-47.8765
-47.5659
-47.0529
-46.3673
-45.54
-44.5976
-43.566
-42.4669
-41.3212
-40.1435
-38.9478
-37.7468
-36.5528
-35.3747
-34.2148
-33.0801
-31.9774
-30.9105
-1.02615
-4.37848
-7.47032
-10.3413
-13.0193
-15.5575
-17.9914
-20.3392
-22.6102
-24.8086
-26.932
-28.9752
-30.9312
-32.7881
-34.5309
-36.1428
-37.6053
-38.8994
-40.0057
-40.9049
-41.5798
-42.0023
-42.1917
-42.1709
-41.9615
-41.5859
-41.0702
-40.437
-39.7085
-38.9033
-38.0411
-37.1369
-36.2023
-35.249
-34.2877
-33.3284
-32.3782
-31.4396
-30.5186
-29.6211
-28.7506
-1.0416
-4.08438
-6.88808
-9.482
-11.8907
-14.1629
-16.3311
-18.4113
-20.4127
-22.3392
-24.1898
-25.9608
-27.6472
-29.2401
-30.728
-32.0986
-33.3381
-34.4327
-35.3681
-36.1305
-36.7075
-37.0778
-37.2584
-37.2695
-37.1264
-36.8491
-36.456
-35.9671
-35.3982
-34.7656
-34.083
-33.3651
-32.6225
-31.8606
-31.0893
-30.3168
-29.5501
-28.7901
-28.0429
-27.312
-26.6018
-1.02574
-3.79722
-6.34758
-8.69981
-10.874
-12.9164
-14.8558
-16.7074
-18.4788
-20.1753
-21.7957
-23.3385
-24.7993
-26.1721
-27.448
-28.6181
-29.6721
-30.6002
-31.3919
-32.0374
-32.5281
-32.8479
-33.0133
-33.0404
-32.9424
-32.7335
-32.4308
-32.0481
-31.6
-31.0985
-30.5558
-29.9828
-29.3886
-28.7767
-28.155
-27.5307
-26.9091
-26.291
-25.6814
-25.0826
-24.4986
-0.988062
-3.51903
-5.84639
-7.98551
-9.95495
-11.7968
-13.5381
-15.192
-16.7665
-18.2659
-19.691
-21.04
-22.3109
-23.4985
-24.597
-25.5994
-26.4986
-27.2873
-27.9583
-28.5047
-28.9208
-29.1945
-29.3415
-29.3756
-29.3063
-29.1471
-28.9096
-28.6077
-28.2515
-27.8517
-27.4165
-26.9563
-26.4775
-25.9829
-25.4789
-24.9712
-24.4641
-23.9582
-23.4579
-22.9648
-22.4829
-0.933736
-3.25202
-5.38115
-7.33229
-9.12124
-10.7876
-12.3558
-13.8381
-15.242
-16.572
-17.8293
-19.0132
-20.1224
-21.1535
-22.1021
-22.9634
-23.7325
-24.4041
-24.9736
-25.4361
-25.7882
-26.0208
-26.149
-26.1839
-26.1344
-26.0098
-25.8222
-25.5806
-25.295
-24.9728
-24.6217
-24.2476
-23.8586
-23.4583
-23.048
-22.6328
-22.2172
-21.8025
-21.3916
-20.9866
-20.5904
-0.868579
-2.99678
-4.94991
-6.73375
-8.36346
-9.87491
-11.2913
-12.6233
-13.8788
-15.0617
-16.1743
-17.2161
-18.187
-19.0845
-19.906
-20.6478
-21.307
-21.8799
-22.3636
-22.7551
-23.0523
-23.249
-23.359
-23.3925
-23.3554
-23.2573
-23.1062
-22.9114
-22.6795
-22.4178
-22.1318
-21.8272
-21.5099
-21.1835
-20.8481
-20.5081
-20.1674
-19.8273
-19.4902
-19.1576
-18.8323
-0.795406
-2.75454
-4.54992
-6.18518
-7.67311
-9.04775
-10.3299
-11.53
-12.6551
-13.7099
-14.6964
-15.6154
-16.4669
-17.2499
-17.9625
-18.6028
-19.1685
-19.6579
-20.069
-20.4003
-20.6509
-20.8163
-20.9098
-20.9394
-20.9111
-20.8314
-20.7088
-20.5495
-20.3603
-20.1461
-19.9122
-19.6624
-19.4024
-19.1347
-18.8594
-18.5801
-18.2996
-18.0193
-17.741
-17.4659
-17.1962
-0.717965
-2.52513
-4.17968
-5.68171
-7.04361
-8.29637
-9.45962
-10.543
-11.5534
-12.4955
-13.3719
-14.1838
-14.9319
-15.6159
-16.235
-16.7881
-17.2741
-17.6923
-18.0418
-18.322
-18.5326
-18.6711
-18.7493
-18.7748
-18.7515
-18.6865
-18.5853
-18.4545
-18.2984
-18.1223
-17.9295
-17.724
-17.5083
-17.2871
-17.062
-16.8318
-16.5994
-16.3666
-16.1356
-15.9066
-15.682
-0.637692
-2.30918
-3.83682
-5.21995
-6.46881
-7.61312
-8.67024
-9.65005
-10.5587
-11.4016
-12.181
-12.8991
-13.5568
-14.1549
-14.6929
-15.1709
-15.5885
-15.9458
-16.2425
-16.479
-16.6555
-16.7706
-16.8356
-16.8563
-16.8371
-16.7823
-16.6983
-16.5892
-16.4598
-16.3132
-16.1532
-15.9825
-15.8036
-15.6202
-15.4339
-15.2429
-15.0498
-14.8561
-14.664
-14.4735
-14.2868
-0.557061
-2.10622
-3.52032
-4.79614
-5.94416
-6.99103
-7.95355
-8.84067
-9.65901
-10.4135
-11.1073
-11.7426
-12.3211
-12.8439
-13.3114
-13.7242
-14.0828
-14.3876
-14.6392
-14.8381
-14.9855
-15.0806
-15.1335
-15.15
-15.1326
-15.0864
-15.0154
-14.9243
-14.8159
-14.6939
-14.5605
-14.4187
-14.2699
-14.118
-13.9639
-13.8056
-13.6455
-13.4851
-13.326
-13.1684
-13.014
-0.476746
-1.91663
-3.22811
-4.408
-5.46508
-6.4246
-7.30211
-8.10625
-8.84365
-9.51933
-10.1369
-10.6988
-11.2074
-11.6639
-12.0697
-12.4257
-12.7329
-12.9923
-13.2049
-13.3716
-13.4939
-13.5713
-13.6138
-13.6252
-13.6092
-13.5687
-13.5082
-13.4306
-13.3393
-13.2362
-13.1242
-13.0051
-12.8807
-12.7535
-12.6248
-12.4932
-12.3602
-12.2267
-12.0942
-11.9629
-11.834
-0.398456
-1.73979
-2.95948
-4.05257
-5.02803
-5.90893
-6.70979
-7.43928
-8.10386
-8.7089
-9.25816
-9.75466
-10.2009
-10.5989
-10.9502
-11.2563
-11.5186
-11.7385
-11.9172
-12.056
-12.1566
-12.2193
-12.2524
-12.2605
-12.245
-12.21
-12.158
-12.0926
-12.0154
-11.9289
-11.8349
-11.7353
-11.6316
-11.5246
-11.4169
-11.3091
-11.1992
-11.0882
-10.9779
-10.8689
-10.7617
-0.32244
-1.57602
-2.71274
-3.72814
-4.62993
-5.43966
-6.17144
-6.83326
-7.4322
-7.97335
-8.46127
-8.8989
-9.28957
-9.63518
-9.93823
-10.2001
-10.4229
-10.6079
-10.7571
-10.8714
-10.9529
-11.0017
-11.0263
-11.0294
-11.0137
-10.9811
-10.9352
-10.8777
-10.8109
-10.7366
-10.6564
-10.5715
-10.4835
-10.3925
-10.3016
-10.2105
-10.1175
-10.0237
-9.93064
-9.83882
-9.74856
-0.250004
-1.42473
-2.48751
-3.43269
-4.2681
-5.01368
-5.68248
-6.28299
-6.82204
-7.30539
-7.73751
-8.12216
-8.46249
-8.76131
-9.02092
-9.2436
-9.43119
-9.58575
-9.70881
-9.8022
-9.86742
-9.90557
-9.92341
-9.92437
-9.90928
-9.88123
-9.8418
-9.79344
-9.7375
-9.6758
-9.60911
-9.53881
-9.46558
-9.39036
-9.3151
-9.23999
-9.16339
-9.08616
-9.00967
-8.9344
-8.86055
-0.18126
-1.28632
-2.28246
-3.1649
-3.94041
-4.62769
-5.2394
-5.7839
-6.26827
-6.69863
-7.07983
-7.41605
-7.71077
-7.96713
-8.18763
-8.37484
-8.53074
-8.65749
-8.75669
-8.83016
-8.87934
-8.90536
-8.91481
-8.90956
-8.89178
-8.86252
-8.82447
-8.77909
-8.72825
-8.67247
-8.61351
-8.55148
-8.48761
-8.42189
-8.35688
-8.29182
-8.22537
-8.15846
-8.09227
-8.02726
-7.96343
-0.117327
-1.16048
-2.09761
-2.9232
-3.64441
-4.2787
-4.83831
-5.33166
-5.7661
-6.14786
-6.48229
-6.77391
-7.02668
-7.24408
-7.429
-7.58418
-7.71186
-7.81442
-7.89366
-7.95159
-7.98974
-8.0095
-8.01605
-8.01191
-7.9972
-7.97411
-7.94379
-7.90817
-7.86748
-7.82371
-7.7765
-7.72718
-7.67614
-7.62405
-7.57218
-7.52045
-7.46769
-7.4145
-7.36192
-7.31034
-7.25981
-0.0582622
-1.04807
-1.93279
-2.7078
-3.37939
-3.96455
-4.47551
-4.9214
-5.30965
-5.64704
-5.93872
-6.1897
-6.40386
-6.5853
-6.73692
-6.86192
-6.96231
-7.04047
-7.09776
-7.13606
-7.15659
-7.16072
-7.154
-7.13757
-7.11313
-7.08166
-7.04545
-7.00486
-6.96204
-6.91615
-6.86928
-6.82091
-6.77235
-6.72265
-6.67425
-6.62599
-6.57728
-6.52852
-6.48042
-6.43329
-6.387
-0.00487567
-0.948999
-1.78909
-2.5198
-3.14741
-3.68751
-4.15259
-4.55238
-4.89566
-5.18993
-5.44129
-5.65462
-5.83412
-5.98328
-6.10558
-6.20408
-6.28199
-6.34194
-6.38649
-6.41742
-6.43645
-6.4448
-6.44571
-6.44049
-6.42895
-6.41254
-6.39118
-6.36694
-6.33866
-6.3086
-6.27584
-6.2423
-6.2073
-6.17202
-6.13557
-6.10036
-6.06529
-6.02971
-5.99418
-5.95947
-5.92561
0.0428867
-0.862943
-1.66404
-2.35675
-2.94664
-3.4483
-3.87335
-4.23147
-4.53172
-4.78259
-4.99164
-5.16528
-5.3088
-5.42604
-5.51987
-5.59205
-5.64423
-5.67762
-5.69389
-5.6945
-5.68144
-5.65625
-5.62425
-5.58715
-5.547
-5.50409
-5.46099
-5.41666
-5.37325
-5.32946
-5.28722
-5.24503
-5.2039
-5.16336
-5.124
-5.08579
-5.04879
-5.01241
-4.97653
-4.9419
-4.90801
0.0836069
-0.789264
-1.55412
-2.20884
-2.7614
-3.22686
-3.61751
-3.94266
-4.21048
-4.42808
-4.60205
-4.73867
-4.84438
-4.92537
-4.98765
-5.03626
-5.07535
-5.10752
-5.13455
-5.15689
-5.17501
-5.18842
-5.19819
-5.20415
-5.20486
-5.20174
-5.19334
-5.18195
-5.16621
-5.14855
-5.12757
-5.10551
-5.0817
-5.05756
-5.03225
-5.00807
-4.98396
-4.96
-4.93646
-4.91397
-4.89225
0.116009
-0.732674
-1.46601
-2.08265
-2.5913
-3.00955
-3.3531
-3.63521
-3.86674
-4.05608
-4.20918
-4.32977
-4.4202
-4.48184
-4.51608
-4.52455
-4.50985
-4.47514
-4.42416
-4.36063
-4.28799
-4.20967
-4.13148
-4.05542
-3.98398
-3.91656
-3.85544
-3.79877
-3.74796
-3.70082
-3.65836
-3.61859
-3.58211
-3.54834
-3.51746
-3.48831
-3.46157
-3.43678
-3.41324
-3.3913
-3.36997
0.13942
-0.70186
-1.42567
-2.02728
-2.51111
-2.89076
-3.18178
-3.39957
-3.55955
-3.67613
-3.76223
-3.82885
-3.88494
-3.93711
-3.98972
-4.0448
-4.1026
-4.16175
-4.22048
-4.27633
-4.32788
-4.37319
-4.41077
-4.44038
-4.46013
-4.47247
-4.47594
-4.47357
-4.46438
-4.45168
-4.43472
-4.41565
-4.39465
-4.37261
-4.34972
-4.32722
-4.30508
-4.2834
-4.26201
-4.24163
-4.22162
0.153671
-0.696077
-1.43246
-2.0541
-2.56293
-2.96693
-3.27512
-3.49687
-3.64178
-3.71948
-3.7393
-3.7102
-3.64062
-3.53874
-3.41218
-3.26839
-3.11411
-2.95565
-2.79803
-2.64561
-2.50082
-2.36623
-2.24559
-2.13918
-2.04706
-1.96745
-1.89995
-1.84316
-1.79572
-1.7544
-1.71821
-1.68715
-1.66114
-1.63933
-1.61891
-1.6026
-1.5892
-1.57732
-1.56665
-1.55686
-1.54865
0.156792
-0.685339
-1.38822
-1.96642
-2.4383
-2.8238
-3.13981
-3.39953
-3.61327
-3.78918
-3.93371
-4.05203
-4.14831
-4.2259
-4.28741
-4.33482
-4.36969
-4.39321
-4.40651
-4.41084
-4.40743
-4.39779
-4.38113
-4.35803
-4.3301
-4.29909
-4.26632
-4.23288
-4.20068
-4.17147
-4.14601
-4.12329
-4.10336
-4.08512
-4.07017
-4.05703
-4.04614
-4.03753
-4.03173
-4.02854
-4.02755
44.0575
40.5278
34.5623
32.3763
30.0577
27.0262
24.2251
21.8934
19.8606
18.0318
16.416
14.9873
13.7366
12.6132
11.604
10.6551
9.84382
9.21315
8.72543
8.13775
7.44963
6.82164
6.29633
5.82521
5.43264
5.06266
4.73383
4.42725
4.16579
3.96626
3.77033
3.65004
3.50786
3.37329
3.17882
2.87051
2.64605
2.41029
2.25752
2.22537
2.27991
2.38689
2.38082
2.37704
2.31683
2.14185
1.92558
1.77373
1.64228
1.57954
1.55566
1.52543
1.53966
1.53352
1.44191
1.34522
1.10955
1.01595
0.826471
0.71108
0.622001
0.558148
0.552466
0.505295
0.464187
0.466394
0.514912
0.552595
0.584498
0.555262
0.524128
0.448382
0.363646
0.0583378
43.3988
40.2227
34.2151
32.1623
29.9005
26.8598
24.0456
21.7005
19.6558
17.8277
16.2258
14.8167
13.5733
12.4454
11.4218
10.4665
9.66073
9.06836
8.6087
8.0262
7.33615
6.70282
6.17205
5.70081
5.31208
4.9539
4.64215
4.35818
4.12029
3.93478
3.74238
3.60275
3.43851
3.28076
3.07981
2.7891
2.58354
2.38229
2.25644
2.23646
2.28648
2.37209
2.34884
2.31901
2.24407
2.07354
1.87463
1.74236
1.63653
1.59557
1.5805
1.54871
1.54782
1.52561
1.42042
1.31402
1.07982
0.985423
0.810297
0.702311
0.619503
0.558295
0.549814
0.504415
0.45923
0.46036
0.509047
0.549696
0.58272
0.553363
0.522837
0.446831
0.36356
0.0578862
42.8158
39.7767
33.8827
31.9034
29.7103
26.6729
23.8455
21.4898
19.4399
17.6184
16.0299
14.629
13.3762
12.2315
11.2069
10.2673
9.47332
8.89443
8.43983
7.86333
7.18339
6.55603
6.03023
5.57054
5.19315
4.85263
4.55898
4.29437
4.07175
3.89076
3.69384
3.53088
3.34352
3.16882
2.97223
2.71002
2.53158
2.36399
2.26228
2.2474
2.28397
2.34344
2.29903
2.24632
2.15996
2.00686
1.83164
1.72204
1.64151
1.61861
1.6069
1.57063
1.55148
1.51156
1.39613
1.28078
1.05513
0.958422
0.796168
0.695551
0.617349
0.55879
0.546581
0.502127
0.454396
0.454655
0.503052
0.546515
0.580598
0.551636
0.520717
0.443718
0.362026
0.0563759
41.8686
39.1202
33.4722
31.5902
29.4842
26.4609
23.624
21.2685
19.2238
17.4109
15.8283
14.423
13.1519
11.9915
10.9815
10.0781
9.29321
8.68801
8.20528
7.64067
6.99224
6.38783
5.87971
5.43913
5.07657
4.75346
4.47438
4.22176
4.00555
3.81948
3.61303
3.42865
3.22365
3.04212
2.86193
2.63821
2.49308
2.35598
2.27219
2.25316
2.26706
2.29609
2.2289
2.15875
2.06705
1.93605
1.79003
1.70778
1.65007
1.64165
1.62913
1.58588
1.54767
1.49045
1.36741
1.2463
1.03117
0.933495
0.784834
0.691643
0.616462
0.560568
0.543457
0.499449
0.450663
0.44982
0.496974
0.542511
0.577521
0.549412
0.517204
0.438584
0.35879
0.0539487
40.4796
38.1043
32.7577
31.0342
29.1053
26.1613
23.346
21.016
18.9951
17.1952
15.612
14.197
12.9127
11.7491
10.7584
9.89403
9.11935
8.46445
7.9263
7.36368
6.75881
6.19501
5.71656
5.29986
4.95196
4.64217
4.37172
4.1244
3.90677
3.70943
3.49294
3.29473
3.08483
2.90907
2.75502
2.57579
2.46533
2.3548
2.27972
2.24794
2.23263
2.229
2.141
2.05896
1.97008
1.86233
1.75071
1.69879
1.66164
1.66175
1.6423
1.58715
1.52831
1.45401
1.3269
1.20465
1.00443
0.909181
0.773608
0.687438
0.614823
0.561222
0.539524
0.495508
0.446955
0.445471
0.490978
0.53805
0.573799
0.547075
0.513393
0.432631
0.354615
0.0511933
38.2949
36.4003
31.5317
30.0479
28.3948
25.6339
22.9009
20.6381
18.6766
16.9143
15.3474
13.9401
12.6651
11.5164
10.5403
9.69819
8.93304
8.24499
7.64267
7.0604
6.48944
5.97223
5.53177
5.14347
4.80976
4.50842
4.24026
3.99266
3.76944
3.56152
3.34059
3.13903
2.93739
2.77974
2.65911
2.52564
2.44715
2.35564
2.27923
2.22547
2.1752
2.138
2.03337
1.94778
1.87117
1.79119
1.71749
1.69652
1.67745
1.6794
1.64849
1.57791
1.49795
1.40728
1.2775
1.15744
0.974164
0.884911
0.76253
0.683925
0.613946
0.561946
0.535481
0.491171
0.443643
0.441402
0.48446
0.532005
0.568155
0.543264
0.508165
0.425146
0.349109
0.0481059
34.5075
33.467
29.3957
28.2492
27.0371
24.6649
22.1508
20.0286
18.178
16.4896
14.9646
13.5898
12.3512
11.2437
10.2927
9.46758
8.72479
8.0311
7.385
6.77475
6.2107
5.72313
5.31693
4.95862
4.64076
4.34662
4.0781
3.82793
3.60025
3.38854
3.17395
2.98165
2.79968
2.66642
2.57816
2.48503
2.43058
2.34977
2.26311
2.18103
2.09356
2.02386
1.90884
1.82781
1.77238
1.72769
1.69568
1.70525
1.70025
1.69699
1.64893
1.55904
1.45723
1.351
1.22045
1.1055
0.941618
0.858973
0.74997
0.679237
0.61233
0.560848
0.530273
0.485691
0.43978
0.437248
0.477661
0.524956
0.561012
0.538274
0.502226
0.416992
0.342708
0.0447591
28.1936
28.7551
25.9928
25.2281
24.5292
22.7618
20.679
18.8552
17.2551
15.768
14.3883
13.1196
11.9594
10.91
9.98743
9.17208
8.44094
7.76324
7.13194
6.52651
5.95585
5.46671
5.07492
4.74229
4.44347
4.15921
3.89156
3.64033
3.41305
3.20681
3.00947
2.83812
2.68373
2.57662
2.51315
2.44666
2.40255
2.32188
2.21951
2.10756
1.98491
1.8865
1.7677
1.70055
1.67495
1.6708
1.68248
1.72044
1.72543
1.71154
1.64324
1.53237
1.40988
1.28988
1.15964
1.0517
0.907683
0.834421
0.739578
0.676345
0.611798
0.55969
0.524987
0.480177
0.436238
0.433227
0.470319
0.516154
0.551486
0.531009
0.494439
0.407484
0.33517
0.0411198
20.2665
22.6379
21.5924
21.2877
21.0646
19.9577
18.3855
16.9078
15.5998
14.3779
13.2308
12.1702
11.1956
10.304
9.50094
8.77039
8.09104
7.45316
6.86529
6.30262
5.74829
5.24106
4.82435
4.48913
4.20561
3.94138
3.68658
3.44219
3.22094
3.0263
2.85226
2.70805
2.58429
2.50081
2.45174
2.39624
2.34643
2.25432
2.13199
1.99455
1.84676
1.72993
1.61653
1.5703
1.58044
1.62103
1.67648
1.73928
1.74931
1.71987
1.62793
1.49447
1.35253
1.22148
1.09455
0.996565
0.874473
0.811528
0.730452
0.673006
0.609967
0.556378
0.518285
0.473609
0.432109
0.429152
0.462997
0.50671
0.540638
0.522326
0.485769
0.397604
0.32709
0.0374378
12.4826
15.9451
16.5174
16.838
17.0927
16.6577
15.6767
14.6044
13.6026
12.6398
11.7084
10.8304
10.0153
9.26277
8.57909
7.9615
7.39797
6.87817
6.4008
5.94341
5.488
5.04888
4.64975
4.29522
3.9834
3.70486
3.45209
3.22012
3.01541
2.84137
2.69512
2.57983
2.48423
2.41792
2.37227
2.31382
2.24734
2.13639
1.99332
1.83577
1.6746
1.55357
1.45797
1.4422
1.4928
1.5778
1.67333
1.75607
1.7671
1.7191
1.6018
1.44457
1.28465
1.1452
1.02387
0.938298
0.839465
0.790377
0.723091
0.670308
0.608101
0.552771
0.511367
0.466805
0.427845
0.424906
0.455228
0.495876
0.527754
0.511337
0.475151
0.386605
0.318237
0.0338309
5.25888
9.03973
10.757
11.8185
12.592
12.7946
12.453
11.8772
11.2547
10.6107
9.95224
9.3041
8.67836
8.07375
7.49606
6.95654
6.46483
6.02733
5.63804
5.275
4.92017
4.58279
4.28204
4.0175
3.77304
3.529
3.27928
3.03381
2.81539
2.64012
2.51005
2.42047
2.35267
2.30253
2.25648
2.18842
2.10075
1.97023
1.81068
1.64215
1.48003
1.36706
1.29914
1.31979
1.41344
1.54202
1.67251
1.76967
1.77712
1.70741
1.56255
1.3801
1.20268
1.05699
0.943942
0.873822
0.800606
0.766483
0.713303
0.665127
0.604175
0.547236
0.503081
0.458629
0.422263
0.419888
0.447277
0.484711
0.514039
0.499115
0.463558
0.375236
0.308877
0.0304324
-1.64889
2.11173
4.50334
6.25461
7.57082
8.35937
8.64384
8.61371
8.42747
8.14754
7.80366
7.42674
7.03413
6.62789
6.21322
5.8047
5.42172
5.07639
4.7683
4.48016
4.195
3.91703
3.66744
3.46007
3.29143
3.14288
2.99213
2.82621
2.65197
2.48752
2.35103
2.25247
2.18243
2.13202
2.08244
2.00905
1.90971
1.76974
1.60441
1.43569
1.28373
1.18866
1.15379
1.21181
1.34455
1.50988
1.66792
1.77442
1.77656
1.68477
1.51188
1.30304
1.10824
0.957449
0.854193
0.801632
0.755449
0.740183
0.702806
0.660568
0.601315
0.542706
0.495306
0.450242
0.415798
0.413719
0.438339
0.47227
0.498729
0.484889
0.450031
0.362706
0.298596
0.027233
-8.46364
-4.78387
-2.0135
0.263403
2.08134
3.40131
4.26553
4.78752
5.07731
5.20393
5.21326
5.14361
5.01887
4.84799
4.6378
4.40376
4.16668
3.94625
3.74821
3.5636
3.37613
3.1804
2.9882
2.81673
2.67697
2.56771
2.47686
2.38918
2.29821
2.20829
2.12835
2.06415
2.00908
1.956
1.89273
1.80518
1.69365
1.55081
1.3903
1.23287
1.10062
1.03017
1.0304
1.12365
1.28909
1.48113
1.65527
1.76208
1.7553
1.64254
1.44447
1.21211
1.00138
0.846257
0.753531
0.720647
0.70378
0.709556
0.690472
0.656219
0.599411
0.538609
0.487269
0.440708
0.407479
0.405788
0.428424
0.459357
0.482988
0.469924
0.435714
0.349757
0.287452
0.0242931
-15.0745
-11.4895
-8.51873
-5.90502
-3.69186
-1.92279
-0.558804
0.4709
1.23395
1.78477
2.17162
2.43567
2.60715
2.70261
2.73249
2.70961
2.65355
2.58419
2.51633
2.45122
2.37906
2.29177
2.19223
2.09278
2.00714
1.94206
1.89392
1.85195
1.80855
1.76477
1.72843
1.70575
1.69214
1.67784
1.64804
1.58817
1.49514
1.36581
1.2149
1.06602
0.946592
0.8928
0.918714
1.03895
1.22952
1.44337
1.62741
1.72947
1.71118
1.57751
1.35622
1.1034
0.87987
0.722782
0.641814
0.629881
0.643621
0.67522
0.67804
0.654959
0.601837
0.538377
0.481568
0.43152
0.397836
0.395579
0.416328
0.444574
0.465768
0.45341
0.419811
0.335728
0.275047
0.0216113
-21.2163
-17.7811
-14.7558
-11.9809
-9.52073
-7.42518
-5.67424
-4.22375
-3.0369
-2.07898
-1.31307
-0.70178
-0.213897
0.172025
0.469155
0.688447
0.84406
0.955836
1.04248
1.11487
1.17319
1.21126
1.22635
1.22467
1.21861
1.21953
1.23101
1.2476
1.26012
1.26398
1.26214
1.26115
1.26374
1.26864
1.26865
1.25304
1.21452
1.14502
1.04891
0.941717
0.848758
0.806103
0.837006
0.958142
1.15067
1.36896
1.55637
1.65663
1.63438
1.48965
1.25349
0.984587
0.748319
0.58716
0.515961
0.525529
0.572188
0.633299
0.662672
0.654776
0.607289
0.541125
0.477529
0.422111
0.386125
0.382438
0.401691
0.428149
0.447685
0.436282
0.403315
0.321334
0.261278
0.0193782
-26.5931
-23.388
-20.4397
-17.6624
-15.113
-12.8391
-10.8358
-9.08208
-7.56103
-6.25625
-5.14547
-4.20199
-3.4002
-2.71957
-2.14668
-1.67152
-1.28245
-0.962822
-0.693775
-0.458831
-0.250917
-0.0716991
0.0753326
0.191488
0.285058
0.368104
0.44987
0.531758
0.60906
0.675323
0.727642
0.767735
0.798965
0.824615
0.844897
0.856436
0.855401
0.836071
0.798715
0.751582
0.712273
0.708257
0.761472
0.886557
1.07008
1.27546
1.44878
1.53933
1.51394
1.36893
1.1332
0.861627
0.61959
0.454201
0.387125
0.411386
0.486191
0.579004
0.639959
0.654206
0.617714
0.551172
0.479746
0.415702
0.373601
0.365673
0.382577
0.40774
0.426803
0.417207
0.385326
0.306038
0.245692
0.017794
-30.9016
-28.0102
-25.2636
-22.6256
-20.1383
-17.8385
-15.7316
-13.8133
-12.0802
-10.5283
-9.14825
-7.9263
-6.84695
-5.89593
-5.06154
-4.33474
-3.7052
-3.16101
-2.6863
-2.26645
-1.89193
-1.55942
-1.26968
-1.02282
-0.813581
-0.632038
-0.467449
-0.312081
-0.164889
-0.0299157
0.0877352
0.185984
0.266656
0.334009
0.391457
0.439385
0.475969
0.497566
0.50364
0.499862
0.500401
0.528073
0.603791
0.740227
0.927295
1.13031
1.30243
1.39372
1.37194
1.2337
1.00611
0.739833
0.498185
0.331432
0.266927
0.301005
0.396837
0.515162
0.605704
0.644658
0.624299
0.562551
0.486141
0.41311
0.36195
0.346436
0.358998
0.382748
0.402473
0.396034
0.366234
0.290433
0.228129
0.0175356
-33.7324
-31.21
-28.7561
-26.3629
-24.0576
-21.8667
-19.7992
-17.8609
-16.0552
-14.3858
-12.8519
-11.4505
-10.1751
-9.01851
-7.97404
-7.03437
-6.19326
-5.44249
-4.77314
-4.17548
-3.6405
-3.16182
-2.73654
-2.362
-2.03427
-1.74637
-1.48804
-1.25007
-1.02721
-0.820098
-0.632617
-0.468173
-0.326947
-0.205895
-0.101069
-0.010027
0.0676704
0.130777
0.179241
0.216939
0.254133
0.308203
0.397232
0.533228
0.710703
0.905847
1.07692
1.18001
1.18227
1.07594
0.879589
0.635375
0.402753
0.235655
0.16862
0.204234
0.311733
0.449987
0.566636
0.630326
0.628121
0.573803
0.494352
0.412367
0.350495
0.324797
0.330618
0.351873
0.372709
0.370806
0.344561
0.273849
0.208129
0.0193697
-35.1459
-32.9979
-30.8712
-28.7681
-26.7082
-24.7074
-22.777
-20.9243
-19.1574
-17.4824
-15.9041
-14.4252
-13.0459
-11.7662
-10.5839
-9.49722
-8.50326
-7.59909
-6.78019
-6.04069
-5.37316
-4.77077
-4.2272
-3.73794
-3.29933
-2.90585
-2.55036
-2.22467
-1.92295
-1.64292
-1.38613
-1.15509
-0.95118
-0.773242
-0.6185
-0.483967
-0.367284
-0.266749
-0.180082
-0.102904
-0.027286
0.0588252
0.168131
0.308946
0.478345
0.657244
0.816907
0.921332
0.94346
0.87414
0.723749
0.523499
0.322826
0.171953
0.107623
0.138852
0.244454
0.387486
0.519722
0.604554