/*--------------------------------*- C++ -*----------------------------------*\
| =========                 |                                                 |
| \\      /  F ield         | OpenFOAM: The Open Source CFD Toolbox           |
|  \\    /   O peration     | Version:  2312                                  |
|   \\  /    A nd           | Website:  www.openfoam.com                      |
|    \\/     M anipulation  |                                                 |
\*---------------------------------------------------------------------------*/
FoamFile
{
    version     2.0;
    format      ascii;
    arch        "LSB;label=32;scalar=64";
    class       surfaceScalarField;
    location    "100";
    object      phi;
}
// * * * * * * * * * * * * * * * * * * * * * * * * * * * * * * * * * * * * * //

dimensions      [0 3 -1 0 0 0 0];

oriented        oriented;

internalField   nonuniform List<scalar> 
21876
(
0.0443961
-0.00947335
-0.0349229
0.0421937
0.00220204
0.0331915
0.00900228
0.0225347
0.010657
0.013264
0.00927077
0.00688219
0.00638166
0.00347915
0.00340279
0.00281437
0.000664444
0.00456691
-0.00175378
0.00716604
-0.00260027
0.00955152
-0.00238604
0.0115163
-0.00196532
0.0130812
-0.00156423
0.014297
-0.00121641
0.0152276
-0.000929954
0.0159295
-0.000701579
0.0164431
-0.000512215
0.0167916
-0.000348272
0.0169868
-0.000193677
0.0170058
-1.90752e-05
0.0168138
0.000194566
0.0165318
0.000281097
0.0162856
0.000248052
0.0160533
0.000232683
0.0157996
0.000254343
0.0155133
0.000287497
0.0151834
0.00032987
0.0148063
0.000378172
0.0143735
0.000432799
0.0138786
0.000495748
0.013311
0.000567681
0.0126609
0.000650748
0.0119175
0.000743551
0.0110633
0.000854712
0.0100888
0.000974564
0.00899083
0.00109824
0.007774
0.00121688
0.00643535
0.0013386
0.00499499
0.00143982
0.00322568
0.00177126
-0.00200481
0.00523403
0.0464377
-0.0195301
-0.0363811
0.0491388
-0.000498903
0.0509113
0.00723022
0.0502807
0.0112882
0.046686
0.0128663
0.0411892
0.0118795
0.0356535
0.00893974
0.0313301
0.00498931
0.0284301
0.00114777
0.0269564
-0.00112484
0.0263529
-0.00178069
0.0261184
-0.00172939
0.0260702
-0.0015145
0.02612
-0.0012662
0.0261953
-0.0010048
0.0262401
-0.000746346
0.0262181
-0.000489535
0.0261073
-0.000237626
0.025891
2.35737e-05
0.0255732
0.000298392
0.0251404
0.00062871
0.0246614
0.000759305
0.0242145
0.000695799
0.0237953
0.000651558
0.0233804
0.000669034
0.0229545
0.00071374
0.0225019
0.000781994
0.0220126
0.000867513
0.0214746
0.000970328
0.0208779
0.00109254
0.0202088
0.00123643
0.0194536
0.00140593
0.0185967
0.00160032
0.0176132
0.00183828
0.0164856
0.00210224
0.0151964
0.00238762
0.0137401
0.00267357
0.0120648
0.00301429
0.0102589
0.00324651
0.00832531
0.00370669
3.77221e-05
0.006286
0.051439
-0.0319664
-0.0390024
0.0586342
-0.00769403
0.0624173
0.0034473
0.0650334
0.00867243
0.0663198
0.0115801
0.0657934
0.012406
0.0637331
0.0110001
0.060887
0.00783525
0.0580035
0.00403093
0.0556338
0.00124429
0.0537246
0.000127942
0.0519636
3.10187e-05
0.0501946
0.000254042
0.0483848
0.000543118
0.0465549
0.000824908
0.0447532
0.00105538
0.043042
0.00122194
0.0414721
0.00133223
0.0400573
0.00143888
0.0387715
0.00158403
0.0375474
0.0018539
0.0364776
0.00182886
0.0355702
0.00160409
0.0347642
0.00145789
0.0340022
0.00143148
0.0332547
0.00146206
0.032501
0.0015358
0.0317282
0.00164097
0.0309204
0.00177831
0.0300628
0.00195071
0.0291367
0.00216268
0.0281236
0.0024195
0.0270037
0.0027204
0.0257467
0.00309556
0.024334
0.00351492
0.0227467
0.00397513
0.020977
0.00444332
0.0189581
0.00503298
0.0167771
0.00542721
0.014397
0.00608734
0.0035852
0.0108502
0.0551368
-0.0447937
-0.0423093
0.0650271
-0.0175841
0.0702571
-0.00178236
0.0733736
0.00555623
0.0756412
0.00931284
0.0771726
0.0108749
0.0776531
0.0105201
0.0769878
0.00850117
0.075508
0.00551133
0.0739061
0.00284697
0.0725834
0.00145154
0.0714788
0.00113664
0.0704541
0.00127973
0.0694144
0.00158343
0.0682854
0.00195444
0.066996
0.0023452
0.0654948
0.00272363
0.0637582
0.0030692
0.0617863
0.00341121
0.0595982
0.00377222
0.0572256
0.00422715
0.0549961
0.00405819
0.0530119
0.00358862
0.0512643
0.00320489
0.0497054
0.00299022
0.0482945
0.00287308
0.0469828
0.00284738
0.0457277
0.00289596
0.0444888
0.00301699
0.0432313
0.00320811
0.0419216
0.00347222
0.0405299
0.00381107
0.0390287
0.00422147
0.0373789
0.00474536
0.0355594
0.00533444
0.0335493
0.0059853
0.0313395
0.00665334
0.0288546
0.00751816
0.0261677
0.00811461
0.0232306
0.00902541
0.00761523
0.0192018
0.0594101
-0.0579965
-0.0462071
0.0712712
-0.0294451
0.0794311
-0.00994192
0.084517
0.000470877
0.0877708
0.00605947
0.0897187
0.00892736
0.0905269
0.00971224
0.090254
0.00877434
0.0890871
0.00667841
0.0875315
0.00440259
0.0860649
0.00291806
0.0848046
0.00239689
0.0837123
0.0023718
0.0827521
0.00254354
0.0819052
0.00280116
0.0811401
0.00311018
0.0804145
0.00344913
0.0796827
0.00380099
0.0788881
0.00420579
0.0779573
0.00470292
0.0767926
0.00539226
0.0754807
0.00537019
0.0740799
0.00498969
0.0726022
0.00468279
0.071044
0.00454865
0.0694182
0.00449932
0.0677351
0.00453074
0.0660045
0.00462694
0.0642291
0.00479251
0.0624071
0.00503044
0.0605269
0.00535265
0.0585708
0.00576741
0.056515
0.00627738
0.0543139
0.00694669
0.0519421
0.0077063
0.0493715
0.00855597
0.0465839
0.00944105
0.0434871
0.0106149
0.0401456
0.0114561
0.0364965
0.0126747
0.0120257
0.0320863
0.0645758
-0.0719109
-0.0506606
0.077908
-0.0427772
0.088832
-0.0208655
0.0966422
-0.00733934
0.10187
0.000832064
0.105111
0.00568629
0.106674
0.0081489
0.106812
0.00863627
0.105831
0.00765947
0.104239
0.00599484
0.102567
0.00458977
0.101049
0.00391572
0.0996995
0.00372161
0.0984775
0.00376607
0.0973618
0.00391744
0.0963368
0.00413573
0.0953853
0.00440117
0.0944972
0.00468964
0.0936677
0.00503584
0.0928955
0.00547544
0.0921545
0.00613382
0.0914791
0.00604573
0.0908699
0.00559915
0.0902939
0.00525867
0.0896996
0.00514299
0.0890502
0.00514887
0.0883088
0.0052722
0.0874408
0.00549495
0.0864132
0.00582002
0.085197
0.00624664
0.0837629
0.00678664
0.0820832
0.00744715
0.0801305
0.00823005
0.0778598
0.00921734
0.0752533
0.0103128
0.0722947
0.0115147
0.0689795
0.0127563
0.0652174
0.014377
0.0611045
0.0155692
0.0565618
0.0172177
0.0169271
0.0516608
0.0709012
-0.0871172
-0.0556955
0.0856268
-0.0575027
0.0986305
-0.0338698
0.10906
-0.0177688
0.116699
-0.00680698
0.121961
0.000424478
0.125187
0.00492316
0.1266
0.00722269
0.126514
0.00774604
0.125415
0.0070941
0.123871
0.0061335
0.122252
0.00553568
0.120699
0.00527472
0.119226
0.00523961
0.117829
0.0053144
0.116505
0.00545913
0.115244
0.00566323
0.114029
0.00590421
0.112853
0.006212
0.111714
0.00661473
0.110606
0.00724203
0.109621
0.00703068
0.108773
0.00644686
0.108059
0.00597293
0.107446
0.00575656
0.106908
0.00568677
0.106424
0.00575628
0.105971
0.00594853
0.105521
0.00626965
0.105046
0.00672192
0.104509
0.0073242
0.103863
0.00809254
0.103054
0.00903944
0.101999
0.0102725
0.100619
0.011693
0.0988216
0.0133121
0.0965156
0.0150623
0.0935251
0.0173676
0.0898566
0.0192378
0.0853578
0.0217167
0.0219569
0.0803281
0.0785264
-0.104227
-0.0614162
0.0949297
-0.0739065
0.109831
-0.0487716
0.122627
-0.0305651
0.132848
-0.0170276
0.140467
-0.00719479
0.145729
-0.000338644
0.148869
0.00408297
0.150143
0.00647109
0.149978
0.00725931
0.148929
0.0071823
0.147467
0.00699773
0.145883
0.00685912
0.14429
0.0068319
0.142732
0.00687346
0.141226
0.00696525
0.139775
0.00711473
0.138367
0.0073119
0.136991
0.00758896
0.135635
0.0079706
0.134289
0.00858826
0.133056
0.0082643
0.131941
0.00756233
0.130951
0.00696315
0.130062
0.00664527
0.129252
0.00649737
0.128504
0.00650438
0.127806
0.00664696
0.127147
0.00692888
0.12652
0.00734839
0.125923
0.00792145
0.125352
0.00866338
0.124805
0.00958731
0.12426
0.0108169
0.123702
0.0122512
0.123085
0.0139296
0.122333
0.0158142
0.12127
0.0184301
0.119746
0.0207618
0.11754
0.0239228
0.0253073
0.11419
0.0875738
-0.123894
-0.0679063
0.106136
-0.0924701
0.123048
-0.065683
0.138004
-0.0455219
0.150617
-0.0296396
0.160696
-0.017274
0.168261
-0.00790468
0.173483
-0.00113874
0.176576
0.003377
0.177864
0.00597132
0.177824
0.00722111
0.176951
0.0078707
0.175641
0.00816944
0.174127
0.00834649
0.172528
0.00847278
0.170911
0.00858222
0.169313
0.00871374
0.167743
0.00888193
0.1662
0.00913199
0.16468
0.00949143
0.163174
0.0100938
0.16179
0.0096489
0.160518
0.00883486
0.159366
0.00811505
0.158317
0.00769409
0.157346
0.00746907
0.156431
0.00741942
0.155556
0.0075224
0.154704
0.00778036
0.153866
0.00818742
0.153032
0.00875487
0.152204
0.00949215
0.151386
0.0104051
0.150581
0.0116213
0.149822
0.0130104
0.149143
0.0146089
0.148577
0.0163802
0.148117
0.01889
0.1477
0.0211791
0.147372
0.0242505
0.0265451
0.146134
0.0982217
-0.146846
-0.0752711
0.119562
-0.11381
0.138879
-0.0850008
0.156093
-0.0627355
0.171019
-0.0445656
0.183505
-0.0297606
0.193497
-0.017897
0.201033
-0.00867572
0.206259
-0.00184938
0.209412
0.00281823
0.210856
0.00577641
0.211035
0.0076916
0.210381
0.00882347
0.209226
0.00950221
0.207784
0.00991501
0.206191
0.0101748
0.204534
0.0103711
0.202859
0.0105563
0.201189
0.0108028
0.19953
0.0111505
0.197886
0.0117384
0.196368
0.0111672
0.194959
0.010244
0.193669
0.00940559
0.192488
0.00887482
0.191395
0.00856293
0.190367
0.00844708
0.189387
0.00850244
0.188439
0.00872917
0.187506
0.00912003
0.186579
0.00968224
0.185649
0.0104219
0.184716
0.0113391
0.183766
0.0125707
0.182822
0.0139544
0.181912
0.0155191
0.181071
0.0172216
0.180329
0.0196319
0.179709
0.0217987
0.179426
0.0245345
0.0270093
0.178961
0.110697
-0.173918
-0.0836255
0.135554
-0.138666
0.157864
-0.107311
0.177684
-0.0825557
0.195025
-0.0619067
0.209882
-0.0446181
0.222252
-0.030267
0.232163
-0.0185868
0.239688
-0.00937491
0.244983
-0.00247678
0.248316
0.00244351
0.250039
0.00596884
0.250538
0.00832395
0.250179
0.00986157
0.249247
0.0108463
0.247952
0.0114705
0.246438
0.0118843
0.244804
0.0121904
0.243109
0.0124983
0.241385
0.0128742
0.239654
0.0134698
0.238033
0.0127893
0.236506
0.011771
0.235086
0.0108259
0.233774
0.0101873
0.232554
0.00978257
0.23141
0.00959239
0.230323
0.00958907
0.22928
0.00977241
0.228268
0.0101325
0.227276
0.0106744
0.226298
0.0113994
0.225334
0.0123039
0.224368
0.0135359
0.22342
0.0149032
0.222507
0.0164324
0.221648
0.0180805
0.220836
0.0204436
0.220115
0.02252
0.219599
0.0250501
0.0273782
0.219231
0.125299
-0.206099
-0.0931171
0.154552
-0.16792
0.180606
-0.133364
0.203605
-0.105555
0.223714
-0.0820153
0.241092
-0.0619963
0.255867
-0.045041
0.268137
-0.0308563
0.277997
-0.0192353
0.285559
-0.0100379
0.291009
-0.00300695
0.294626
0.00235226
0.296715
0.00623416
0.297607
0.00896954
0.297609
0.0108444
0.296976
0.0121027
0.29591
0.0129503
0.294561
0.0135393
0.293035
0.0140244
0.291403
0.0145069
0.289711
0.0151617
0.288078
0.0144226
0.286505
0.013344
0.285013
0.0123187
0.283614
0.0115873
0.282303
0.0110942
0.281068
0.0108271
0.279898
0.0107591
0.278782
0.0108889
0.277709
0.0112058
0.276672
0.0117116
0.275667
0.0124044
0.274696
0.0132751
0.273746
0.0144854
0.272841
0.0158084
0.272002
0.0172723
0.271251
0.0188312
0.270567
0.0211274
0.270015
0.0230721
0.269628
0.0254372
0.0275662
0.26944
0.142398
-0.24457
-0.103927
0.177101
-0.202623
0.207814
-0.164077
0.23475
-0.13249
0.258193
-0.105458
0.278452
-0.0822553
0.295805
-0.0623938
0.310479
-0.0455299
0.322656
-0.0314119
0.332485
-0.0198663
0.340132
-0.0106531
0.345821
-0.00333681
0.349796
0.0022592
0.352328
0.00643809
0.353692
0.0094803
0.35415
0.0116446
0.35393
0.0131701
0.35322
0.0142493
0.352168
0.0150761
0.350885
0.01579
0.349452
0.016594
0.347978
0.0158972
0.346498
0.0148244
0.345048
0.0137691
0.343656
0.0129795
0.342334
0.0124179
0.34108
0.0120813
0.339891
0.0119484
0.338761
0.0120192
0.337685
0.0122819
0.336659
0.0127372
0.335684
0.0133794
0.334764
0.0141953
0.333888
0.0153616
0.333082
0.0166149
0.332369
0.0179853
0.331778
0.0194225
0.331281
0.0216239
0.330958
0.0233955
0.330823
0.0255719
0.0274736
0.330916
0.162464
-0.290753
-0.11628
0.203881
-0.244041
0.240361
-0.200556
0.272176
-0.164306
0.299721
-0.133002
0.323437
-0.105972
0.343752
-0.0827088
0.36104
-0.0628175
0.375611
-0.0459822
0.387707
-0.0319615
0.397542
-0.0204881
0.405349
-0.0111427
0.411335
-0.00372663
0.41573
0.00204305
0.418772
0.00643927
0.420692
0.00972451
0.421714
0.0121482
0.422038
0.0139257
0.421835
0.0152792
0.421245
0.0163788
0.420384
0.0174552
0.419324
0.0169572
0.418152
0.0159972
0.41693
0.0149914
0.415709
0.0142013
0.414518
0.01361
0.413372
0.0132277
0.412279
0.0130414
0.411244
0.0130543
0.41027
0.0132569
0.409358
0.0136487
0.408515
0.014223
0.407747
0.0149626
0.407046
0.0160627
0.40644
0.0172208
0.405954
0.0184718
0.405616
0.019761
0.405393
0.0218467
0.405367
0.0234216
0.405545
0.0253933
0.0270542
0.405965
0.186077
-0.346371
-0.130459
0.235739
-0.293704
0.279323
-0.244139
0.317169
-0.202153
0.349781
-0.165613
0.377731
-0.133922
0.401594
-0.106571
0.421895
-0.0831184
0.43909
-0.0631775
0.453551
-0.0464216
0.465587
-0.0325242
0.475496
-0.0210505
0.483509
-0.011739
0.489845
-0.00429307
0.494723
0.00156255
0.498351
0.00609654
0.50093
0.00956964
0.502649
0.012207
0.503681
0.0142471
0.504178
0.0158816
0.504273
0.0173603
0.503966
0.0172645
0.503402
0.016561
0.502676
0.0157179
0.501865
0.0150134
0.501021
0.0144549
0.500181
0.0140697
0.499366
0.0138562
0.498596
0.013825
0.497883
0.0139698
0.497239
0.0142929
0.496675
0.0147864
0.496206
0.0154328
0.495821
0.0164465
0.495555
0.0174876
0.49543
0.0185968
0.495475
0.0197168
0.49565
0.021671
0.496036
0.0230361
0.496631
0.024798
0.0262202
0.497465
0.213957
-0.413516
-0.146811
0.273721
-0.353468
0.326033
-0.296451
0.371311
-0.247432
0.410179
-0.20448
0.44335
-0.167094
0.471553
-0.134774
0.49547
-0.107035
0.515714
-0.083421
0.532801
-0.0635092
0.547171
-0.0468932
0.559218
-0.0330973
0.56925
-0.0217708
0.577527
-0.0125697
0.584277
-0.00518754
0.589711
0.000663446
0.594021
0.00526027
0.597382
0.00884678
0.599956
0.0116726
0.601894
0.0139445
0.603329
0.0159253
0.604143
0.0164506
0.604539
0.0161661
0.604638
0.0156188
0.604545
0.0151076
0.604335
0.0146657
0.604067
0.0143397
0.603782
0.0141418
0.603514
0.0140934
0.603289
0.0141955
0.603128
0.014454
0.603051
0.0148638
0.603076
0.0154076
0.6032
0.0163222
0.603456
0.0172316
0.603868
0.0181848
0.604462
0.019123
0.605197
0.0209369
0.606144
0.0220879
0.6073
0.0236423
0.0248343
0.608686
0.246971
-0.494736
-0.165751
0.3191
-0.425598
0.382119
-0.359469
0.436537
-0.30185
0.483116
-0.251059
0.522732
-0.20671
0.556283
-0.168324
0.584624
-0.135376
0.608537
-0.107334
0.6287
-0.0836721
0.645697
-0.0638896
0.660048
-0.0474484
0.672167
-0.0338899
0.682397
-0.0227985
0.691019
-0.0138095
0.698273
-0.00659081
0.704369
-0.000834853
0.709488
0.00372834
0.71379
0.00737044
0.71742
0.0103156
0.720508
0.0128376
0.722778
0.0141815
0.724477
0.014466
0.725751
0.0143465
0.726719
0.0141396
0.727481
0.0139059
0.72811
0.0137112
0.728668
0.0135845
0.729203
0.0135591
0.729754
0.0136452
0.730352
0.0138556
0.731027
0.0141897
0.731801
0.0146333
0.732677
0.0154462
0.733688
0.0162206
0.734858
0.0170146
0.736211
0.0177699
0.737706
0.0194428
0.739408
0.0203851
0.74131
0.0217406
0.0227162
0.743428
0.259746
-0.58388
-0.170601
0.338787
-0.504639
0.407755
-0.428437
0.467214
-0.361309
0.518004
-0.301848
0.561091
-0.249797
0.597469
-0.204702
0.628092
-0.165999
0.653838
-0.133079
0.675482
-0.105316
0.6937
-0.0821079
0.709094
-0.0628423
0.722154
-0.0469489
0.733284
-0.0339286
0.74282
-0.0233452
0.751037
-0.0148074
0.758162
-0.00795967
0.764388
-0.00249723
0.769878
0.00188059
0.774772
0.0054214
0.779194
0.00841612
0.782734
0.0106415
0.785653
0.0115476
0.788087
0.0119121
0.790159
0.0120679
0.79197
0.0120965
0.7936
0.012082
0.795117
0.0120687
0.796573
0.012102
0.798018
0.0122021
0.799484
0.012389
0.801006
0.0126685
0.802608
0.0130302
0.8043
0.0137553
0.806109
0.0144114
0.808059
0.0150656
0.810168
0.0156605
0.812402
0.0172088
0.814816
0.0179712
0.8174
0.0191571
0.0199505
0.820165
0.26942
-0.679805
-0.173495
0.354377
-0.589596
0.428441
-0.502501
0.492221
-0.425089
0.546625
-0.356252
0.592695
-0.295867
0.631503
-0.243509
0.664079
-0.198576
0.691382
-0.160381
0.714261
-0.128196
0.733467
-0.101313
0.749663
-0.0790381
0.7634
-0.0606866
0.775142
-0.0456702
0.78527
-0.0334733
0.7941
-0.023637
0.80189
-0.0157491
0.80885
-0.00945784
0.815158
-0.00442731
0.820961
-0.000380457
0.826382
0.00299405
0.830922
0.00610232
0.834838
0.00763075
0.838259
0.00849199
0.841298
0.00902934
0.844051
0.00934399
0.846599
0.00953464
0.849009
0.00965954
0.851337
0.00977453
0.853629
0.00991016
0.855924
0.0100942
0.858254
0.0103387
0.860646
0.0106385
0.863109
0.0112918
0.865672
0.0118493
0.868351
0.0123858
0.871167
0.0128458
0.874088
0.0142866
0.877162
0.0148986
0.880376
0.0159424
0.0165842
0.883743
0.281119
-0.783135
-0.17779
0.372562
-0.681038
0.452229
-0.582168
0.520784
-0.493644
0.579204
-0.414672
0.628612
-0.345275
0.670162
-0.285059
0.70497
-0.233383
0.734068
-0.18948
0.758385
-0.152513
0.778739
-0.121667
0.795855
-0.096154
0.810344
-0.075175
0.82272
-0.0580462
0.833413
-0.0441671
0.842781
-0.0330047
0.851116
-0.0240839
0.858658
-0.017
0.865605
-0.011374
0.872118
-0.00689395
0.878336
-0.00322325
0.883685
0.000752339
0.88843
0.00288627
0.892686
0.00423499
0.896562
0.00515401
0.900146
0.00575882
0.903519
0.00616284
0.906742
0.00643564
0.909872
0.00664485
0.912953
0.00682871
0.916025
0.00702335
0.919116
0.00724692
0.922256
0.00749981
0.925453
0.00809418
0.928733
0.00856974
0.932111
0.00900764
0.935603
0.00935459
0.939187
0.010702
0.942898
0.0111881
0.946727
0.0121122
0.0126275
0.950685
0.294711
-0.894531
-0.183313
0.393236
-0.779565
0.479039
-0.667971
0.552834
-0.567439
0.615679
-0.477516
0.668781
-0.398378
0.713386
-0.329663
0.750693
-0.27069
0.781821
-0.220607
0.807773
-0.178465
0.829439
-0.143334
0.847606
-0.114321
0.862942
-0.0905106
0.876014
-0.071118
0.887299
-0.055452
0.897194
-0.0429001
0.906029
-0.0329191
0.914076
-0.0250462
0.921556
-0.0188545
0.928655
-0.0139924
0.935524
-0.0100927
0.941545
-0.00526668
0.94698
-0.00255006
0.951946
-0.000729366
0.956539
0.000559506
0.96085
0.00144873
0.964948
0.00206317
0.968901
0.00248501
0.972754
0.00279044
0.976556
0.00302742
0.98034
0.00323905
0.984138
0.00345002
0.987972
0.00366578
0.991857
0.00420986
0.995811
0.00461538
0.99985
0.00496921
1.00398
0.00521999
1.0082
0.00648427
1.01253
0.00686346
1.01695
0.00768494
0.00809282
1.02149
0.310138
-1.01471
-0.18996
0.416387
-0.885813
0.508888
-0.760473
0.588417
-0.646968
0.656114
-0.545212
0.713282
-0.455545
0.76126
-0.377641
0.801343
-0.310773
0.834735
-0.253999
0.862524
-0.206253
0.885671
-0.166481
0.905029
-0.133678
0.921323
-0.106805
0.935174
-0.0849688
0.947106
-0.067383
0.957556
-0.0533503
0.966891
-0.0422542
0.975415
-0.0335693
0.983377
-0.0268166
0.990986
-0.0216009
0.998415
-0.0175204
1.005
-0.011856
1.01103
-0.00857426
1.0166
-0.0062989
1.02181
-0.00465272
1.02675
-0.0034901
1.03148
-0.00267265
1.03608
-0.00210765
1.04058
-0.00170825
1.04502
-0.00141918
1.04945
-0.00118931
1.05389
-0.000987894
1.05836
-0.000804122
1.06288
-0.000306131
1.06746
3.69157e-05
1.07211
0.000316302
1.07685
0.000483042
1.08166
0.00167013
1.08657
0.00195654
1.09157
0.00268781
0.00300288
1.09666
0.327408
-1.14444
-0.197677
0.442067
-1.00047
0.541872
-0.860278
0.627661
-0.732758
0.700666
-0.618216
0.76229
-0.517169
0.813977
-0.429328
0.857122
-0.353918
0.893024
-0.2899
0.922856
-0.236085
0.947659
-0.191284
0.968353
-0.154371
0.985724
-0.124176
1.00045
-0.0996916
1.01309
-0.0800292
1.02414
-0.064401
1.034
-0.0521122
1.043
-0.0425703
1.05143
-0.0352401
1.05951
-0.029679
1.06743
-0.0254479
1.07452
-0.0189458
1.08106
-0.0151112
1.08715
-0.0123929
1.0929
-0.0104021
1.09839
-0.00897637
1.10368
-0.00796559
1.10884
-0.00726457
1.11391
-0.00677761
1.11893
-0.0064398
1.12393
-0.00619421
1.12895
-0.00600273
1.13399
-0.00584965
1.13909
-0.00539684
1.14423
-0.00511259
1.14945
-0.00490181
1.15475
-0.00481117
1.16012
-0.00369834
1.16557
-0.00349472
1.1711
-0.00284507
-0.00261196
1.17672
0.346561
-1.28456
-0.20644
0.470377
-1.12429
0.578139
-0.96804
0.670758
-0.825375
0.749559
-0.697018
0.816059
-0.583669
0.871813
-0.485081
0.918325
-0.400429
0.956993
-0.328569
0.989087
-0.268177
1.01573
-0.217926
1.03791
-0.176551
1.05648
-0.142748
1.07218
-0.115387
1.08562
-0.0934692
1.09733
-0.0761097
1.10774
-0.0625306
1.11724
-0.0520673
1.12613
-0.0441243
1.13466
-0.0382083
1.14305
-0.033839
1.15059
-0.0264897
1.15759
-0.0221044
1.16414
-0.0189499
1.17036
-0.0166218
1.17633
-0.0149421
1.18211
-0.013746
1.18776
-0.0129169
1.19333
-0.0123487
1.19886
-0.0119678
1.20437
-0.0117102
1.2099
-0.0115316
1.21546
-0.0114106
1.22107
-0.0110046
1.22674
-0.0107783
1.23247
-0.0106334
1.23827
-0.0106142
1.24415
-0.00957552
1.2501
-0.00944837
1.25614
-0.00887541
-0.00871707
1.26224
0.367674
-1.43599
-0.216251
0.501458
-1.25807
0.617888
-1.08447
0.71795
-0.925438
0.803079
-0.782147
0.874908
-0.655498
0.935114
-0.545287
0.985318
-0.450633
1.02703
-0.37028
1.06161
-0.302762
1.09029
-0.246598
1.11412
-0.20038
1.13402
-0.162654
1.1508
-0.132163
1.16511
-0.107787
1.17755
-0.0885402
1.18857
-0.0735541
1.19859
-0.0620874
1.20795
-0.0534797
1.21692
-0.0471828
1.22575
-0.0426726
1.23372
-0.034455
1.24113
-0.0295125
1.2481
-0.0259203
1.25473
-0.0232577
1.26112
-0.0213281
1.26733
-0.0199528
1.27341
-0.0190019
1.27942
-0.0183589
1.2854
-0.0179407
1.29136
-0.017676
1.29734
-0.0175144
1.30336
-0.0174282
1.30943
-0.0170725
1.31556
-0.0169054
1.32175
-0.0168265
1.32801
-0.0168772
1.33435
-0.0159147
1.34077
-0.0158609
1.34725
-0.0153626
-0.015275
1.35381
0.390848
-1.59971
-0.227126
0.535484
-1.40271
0.661356
-1.21034
0.769533
-1.03362
0.861566
-0.87418
0.939216
-0.733148
1.00429
-0.610362
1.05854
-0.504882
1.10359
-0.41533
1.14092
-0.340087
1.17183
-0.277508
1.19747
-0.226026
1.21885
-0.184034
1.23682
-0.150131
1.25211
-0.123073
1.26533
-0.101761
1.27701
-0.0852328
1.28758
-0.0726632
1.29742
-0.0633224
1.30685
-0.0566035
1.31611
-0.0519349
1.32447
-0.0428178
1.33226
-0.0373018
1.3396
-0.0332635
1.34661
-0.0302625
1.35336
-0.0280837
1.35994
-0.0265314
1.3664
-0.0254628
1.37279
-0.0247495
1.37915
-0.0242993
1.38551
-0.0240319
1.39189
-0.0238917
1.3983
-0.0238446
1.40477
-0.0235435
1.41131
-0.0234388
1.41791
-0.0234275
1.42458
-0.0235484
1.43133
-0.022666
1.43816
-0.0226846
1.44505
-0.022261
-0.0222422
1.45202
0.416209
-1.77682
-0.239098
0.572661
-1.55916
0.708822
-1.3465
0.825847
-1.15064
0.925413
-0.973745
1.00942
-0.817156
1.07982
-0.680762
1.1385
-0.563559
1.18721
-0.46404
1.22754
-0.380419
1.26091
-0.310877
1.28856
-0.253675
1.31156
-0.207037
1.33084
-0.169412
1.34719
-0.139421
1.36128
-0.115846
1.37366
-0.0976194
1.38483
-0.0838293
1.39518
-0.0736706
1.40505
-0.0664731
1.41473
-0.0616138
1.42347
-0.0515559
1.4316
-0.0454416
1.43928
-0.0409406
1.44661
-0.0375921
1.45369
-0.0351589
1.46058
-0.0334288
1.46737
-0.0322435
1.47408
-0.0314629
1.48076
-0.0309843
1.48745
-0.030719
1.49416
-0.0306042
1.50092
-0.0306001
1.50773
-0.0303588
1.51462
-0.0303201
1.52157
-0.0303794
1.52859
-0.0305722
1.5357
-0.0297744
1.54288
-0.029866
1.55014
-0.0295182
-0.0295675
1.55746
0.443904
-1.96851
-0.252212
0.613232
-1.72849
0.760605
-1.49388
0.88728
-1.27732
0.995067
-1.08153
1.08602
-0.908109
1.16224
-0.756984
1.22577
-0.627084
1.27849
-0.516761
1.32212
-0.424053
1.35819
-0.346948
1.38804
-0.283522
1.41283
-0.231823
1.43355
-0.190134
1.45106
-0.156932
1.46609
-0.13087
1.47924
-0.110769
1.49103
-0.0956216
1.5019
-0.0845427
1.51222
-0.0767939
1.5223
-0.0716968
1.5314
-0.0606472
1.53986
-0.0539006
1.54783
-0.0489133
1.55544
-0.0452011
1.56278
-0.042504
1.56994
-0.0405906
1.57699
-0.0392868
1.58396
-0.0384394
1.59091
-0.0379345
1.59787
-0.0376745
1.60485
-0.0375886
1.61189
-0.0376317
1.61898
-0.0374548
1.62615
-0.0374863
1.63339
-0.0376196
1.6407
-0.0378869
1.64811
-0.0371791
1.65559
-0.0373455
1.66315
-0.0370762
-0.0371944
1.67077
0.474103
-2.17609
-0.266521
0.657465
-1.91185
0.817067
-1.65348
0.954271
-1.41452
1.07103
-1.1983
1.16958
-1.00665
1.25217
-0.839573
1.321
-0.695916
1.37811
-0.573878
1.42537
-0.471305
1.4644
-0.385983
1.49666
-0.315785
1.52341
-0.258566
1.54571
-0.212437
1.56449
-0.175714
1.58054
-0.146913
1.59451
-0.124738
1.60696
-0.108076
1.61837
-0.0959553
1.62914
-0.0875652
1.63961
-0.0821671
1.64903
-0.0700657
1.65778
-0.0626437
1.666
-0.0571387
1.67384
-0.0530408
1.6814
-0.0500645
1.68877
-0.0479585
1.69601
-0.0465308
1.70319
-0.0456142
1.71034
-0.0450831
1.71749
-0.0448301
1.72468
-0.0447758
1.73192
-0.0448692
1.73922
-0.0447616
1.74661
-0.0448677
1.75406
-0.0450791
1.7616
-0.0454244
1.76924
-0.0448128
1.77695
-0.0450571
1.78474
-0.0448706
-0.0450603
1.79261
0.506999
-2.401
-0.282091
0.70567
-2.11052
0.878614
-1.82643
1.02731
-1.56322
1.15388
-1.32487
1.26072
-1.11349
1.35028
-0.929129
1.42492
-0.770559
1.48685
-0.635811
1.53807
-0.522527
1.58036
-0.42827
1.61527
-0.350697
1.64416
-0.287455
1.66819
-0.236467
1.68836
-0.19588
1.70551
-0.164061
1.72035
-0.139583
1.7335
-0.121225
1.74547
-0.107921
1.75669
-0.0987809
1.76752
-0.0930009
1.77723
-0.0797781
1.78622
-0.0716286
1.79465
-0.0655667
1.80266
-0.0610541
1.81037
-0.0577785
1.81788
-0.0554656
1.82525
-0.0539051
1.83255
-0.0529143
1.83983
-0.0523548
1.84711
-0.0521088
1.85442
-0.0520883
1.86178
-0.0522346
1.86922
-0.0522006
1.87674
-0.0523857
1.88434
-0.0526797
1.89202
-0.053107
1.89981
-0.0525983
1.90768
-0.0529245
1.91563
-0.0528254
-0.05309
1.92366
0.542808
-2.64482
-0.298992
0.758187
-2.3259
0.945701
-2.01394
1.10696
-1.72448
1.24425
-1.46216
1.36016
-1.2294
1.45734
-1.02631
1.53835
-0.851567
1.60557
-0.703025
1.66114
-0.578102
1.707
-0.474125
1.74482
-0.388514
1.77606
-0.318696
1.80198
-0.262387
1.82365
-0.217553
1.84199
-0.182401
1.85777
-0.155365
1.87165
-0.135103
1.88418
-0.12045
1.89583
-0.110428
1.90699
-0.104166
1.91696
-0.089742
1.92613
-0.0808032
1.9347
-0.0741369
1.94282
-0.0691742
1.95062
-0.0655727
1.95818
-0.0630344
1.96561
-0.0613282
1.97295
-0.0602552
1.98026
-0.0596628
1.98757
-0.0594222
1.99492
-0.0594357
2.00232
-0.0596368
2.0098
-0.0596802
2.01736
-0.0599482
2.02501
-0.0603289
2.03275
-0.0608424
2.04059
-0.0604434
2.04852
-0.0608557
2.05655
-0.0608492
-0.0611923
2.06465
0.581772
-2.90928
-0.317309
0.815402
-2.55953
1.01884
-2.21737
1.19382
-1.89946
1.34284
-1.61118
1.46869
-1.35525
1.57422
-1.13185
1.66221
-0.939556
1.73522
-0.776032
1.79557
-0.638456
1.84534
-0.523896
1.88635
-0.429519
1.92017
-0.352512
1.94815
-0.29037
1.97146
-0.240864
1.99109
-0.202027
2.00787
-0.172142
2.0225
-0.149739
2.0356
-0.133543
2.04765
-0.122485
2.0591
-0.115617
2.06927
-0.0999033
2.07857
-0.0901029
2.0872
-0.0827761
2.09535
-0.0773201
2.10314
-0.0733605
2.11068
-0.070573
2.11805
-0.0687043
2.12534
-0.0675376
2.13258
-0.0669051
2.13982
-0.0666659
2.1471
-0.0667123
2.15443
-0.0669687
2.16184
-0.067092
2.16934
-0.0674467
2.17693
-0.0679182
2.18461
-0.0685218
2.19241
-0.0682396
2.2003
-0.0687426
2.20828
-0.0688343
-0.0692603
2.21635
0.62416
-3.19631
-0.33713
0.87774
-2.81311
1.09858
-2.43822
1.28859
-2.08947
1.45045
-1.77303
1.58718
-1.49198
1.70188
-1.24655
1.79752
-1.0352
1.87689
-0.855398
1.94249
-0.704057
1.99656
-0.577968
2.04107
-0.474023
2.0777
-0.389149
2.10794
-0.320608
2.13303
-0.265955
2.15404
-0.223037
2.17188
-0.189975
2.1873
-0.165159
2.20095
-0.147197
2.21338
-0.134919
2.22506
-0.127295
2.23535
-0.110192
2.2447
-0.0994469
2.25331
-0.0913938
2.26139
-0.0853937
2.26907
-0.0810369
2.27646
-0.0779707
2.28368
-0.075918
2.29078
-0.0746422
2.29784
-0.0739593
2.30489
-0.0737153
2.31197
-0.0737914
2.3191
-0.0741028
2.32632
-0.0743079
2.33362
-0.0747519
2.34102
-0.0753179
2.34852
-0.0760159
2.35613
-0.0758576
2.36385
-0.0764565
2.37167
-0.076653
-0.0771673
2.37957
0.670269
-3.50802
-0.358555
0.945679
-3.08852
1.18558
-2.67812
1.39204
-2.29592
1.56796
-1.94896
1.71663
-1.64065
1.84138
-1.3713
1.94543
-1.13925
2.03178
-0.94175
2.10315
-0.775424
2.16195
-0.636765
2.21029
-0.522367
2.25002
-0.42888
2.28272
-0.353308
2.30975
-0.292978
2.33224
-0.245535
2.35119
-0.208924
2.36742
-0.181385
2.38162
-0.161397
2.39438
-0.147684
2.40621
-0.139124
2.41654
-0.120521
2.42583
-0.108735
2.43432
-0.09988
2.4422
-0.0932758
2.44964
-0.0884755
2.45676
-0.0850953
2.46368
-0.0828319
2.47046
-0.0814277
2.47719
-0.080681
2.48389
-0.0804233
2.49063
-0.080524
2.49741
-0.080888
2.50428
-0.081176
2.51124
-0.0817115
2.5183
-0.0823754
2.52546
-0.0831719
2.53274
-0.0831449
2.54013
-0.0838451
2.54763
-0.0841532
-0.0847618
2.55523
0.720433
-3.84676
-0.381692
1.01975
-3.38784
1.28052
-2.93889
1.50501
-2.52041
1.69637
-2.14032
1.85814
-1.80242
1.99393
-1.50709
2.10722
-1.25255
2.20125
-1.03578
2.27896
-0.853132
2.34296
-0.700757
2.39552
-0.57493
2.43864
-0.472001
2.47403
-0.388698
2.50315
-0.322099
2.52725
-0.26963
2.54737
-0.229049
2.56442
-0.198431
2.57914
-0.176119
2.59217
-0.160716
2.60406
-0.151008
2.61432
-0.130781
2.62342
-0.117845
2.63164
-0.108099
2.63919
-0.100821
2.64624
-0.0955227
2.65293
-0.0917861
2.65938
-0.0892797
2.66567
-0.087723
2.67189
-0.0868951
2.67808
-0.0866118
2.68428
-0.0867295
2.69054
-0.0871421
2.69687
-0.0875125
2.7033
-0.0881408
2.70983
-0.0889052
2.71646
-0.0898038
2.72324
-0.0899155
2.73011
-0.0907226
2.73711
-0.0911495
-0.0918586
2.74421
0.775019
-4.21512
-0.406657
1.10054
-3.71336
1.38421
-3.22256
1.62848
-2.76469
1.83678
-2.34862
2.01294
-1.97858
2.16087
-1.65501
2.28433
-1.37601
2.38682
-1.13827
2.47151
-0.937821
2.54122
-0.770466
2.59842
-0.632131
2.64526
-0.518842
2.68359
-0.427026
2.71498
-0.353495
2.74079
-0.295439
2.76215
-0.250409
2.78003
-0.216307
2.79523
-0.191323
2.80845
-0.173935
2.82027
-0.162823
2.83032
-0.140836
2.8391
-0.126625
2.84689
-0.115889
2.85393
-0.107857
2.8604
-0.101996
2.86647
-0.0978534
2.87226
-0.0950654
2.87786
-0.093327
2.88336
-0.0923961
2.88882
-0.0920717
2.89429
-0.092196
2.8998
-0.0926508
2.90539
-0.0931016
2.91107
-0.0938224
2.91685
-0.0946893
2.92274
-0.095693
2.92878
-0.0959507
2.93493
-0.0968701
2.9412
-0.0974234
-0.0982398
2.94758
0.834434
-4.61598
-0.433577
1.18871
-4.06763
1.49751
-3.53136
1.76351
-3.03069
1.99043
-2.57554
2.18243
-2.17057
2.34371
-1.8163
2.47837
-1.51066
2.59017
-1.25008
2.68255
-1.0302
2.75856
-0.846473
2.82087
-0.694436
2.87179
-0.569765
2.91333
-0.468567
2.9472
-0.387361
2.97484
-0.323082
2.99749
-0.273063
3.0162
-0.23501
3.03183
-0.206954
3.04513