/*--------------------------------*- C++ -*----------------------------------*\
| =========                 |                                                 |
| \\      /  F ield         | OpenFOAM: The Open Source CFD Toolbox           |
|  \\    /   O peration     | Version:  2312                                  |
|   \\  /    A nd           | Website:  www.openfoam.com                      |
|    \\/     M anipulation  |                                                 |
\*---------------------------------------------------------------------------*/
FoamFile
{
    version     2.0;
    format      ascii;
    arch        "LSB;label=32;scalar=64";
    class       volSymmTensorField;
    location    "100";
    object      turbulenceProperties:R;
}
// * * * * * * * * * * * * * * * * * * * * * * * * * * * * * * * * * * * * * //

dimensions      [0 2 -2 0 0 0 0];

internalField   nonuniform List<symmTensor> 
11040
(
(0.968481 0.189188 5.75624e-21 0.755675 4.3069e-20 0.889917)
(2.35824 0.257535 -6.6867e-20 1.2336 6.50443e-19 1.91103)
(3.96164 0.0150758 8.22031e-19 1.66887 7.93787e-19 2.9721)
(5.72432 -0.464608 1.88073e-19 2.31655 -1.07258e-18 4.15359)
(7.32071 -1.07144 -2.61242e-20 3.15021 -4.26594e-20 5.30581)
(13.9145 -2.81997 -1.35786e-18 6.60764 -8.19263e-18 10.2651)
(17.6994 -4.58407 -3.01347e-18 9.60853 -5.93534e-17 13.4749)
(16.4472 -5.2223 3.96192e-17 10.5692 -9.90183e-17 13.0534)
(17.5973 -6.16342 1.79993e-17 12.5482 6.47655e-17 14.4532)
(18.8503 -6.85789 -7.71223e-18 14.0147 3.2307e-17 15.7995)
(20.3508 -7.59261 -7.82885e-18 15.4727 3.50885e-17 17.4385)
(22.2308 -8.47925 -1.68836e-17 17.2665 6.01041e-18 19.4418)
(24.0694 -9.38861 -5.7537e-18 19.1931 -1.15401e-17 21.4221)
(25.4782 -10.1692 -1.69597e-18 20.942 -7.64043e-18 23.051)
(26.3719 -10.7684 2.04932e-18 22.3882 -1.37884e-18 24.2545)
(26.8357 -11.2018 -6.41334e-20 23.551 -2.47192e-18 25.0954)
(26.9489 -11.4878 2.68186e-18 24.4597 -2.02563e-18 25.6287)
(26.7405 -11.6271 -1.46336e-20 25.1049 3.36313e-19 25.8636)
(26.1971 -11.6055 -1.15225e-18 25.4439 -3.79991e-19 25.773)
(25.3177 -11.412 -2.26469e-19 25.4326 -3.56105e-19 25.3339)
(24.0416 -11.0136 4.56504e-19 24.979 -8.37875e-19 24.4727)
(22.5532 -10.4745 2.04702e-18 24.1645 2.13893e-18 23.3214)
(21.1431 -9.92106 2.3296e-19 23.2195 1.59993e-18 22.1418)
(19.8813 -9.40741 1.43898e-19 22.2989 9.64407e-18 21.0543)
(18.7358 -8.92992 -4.00113e-18 21.4218 -2.77554e-18 20.0474)
(17.6232 -8.45275 2.73005e-18 20.5092 -3.18592e-18 19.0372)
(16.5231 -7.96936 -4.42557e-19 19.5485 -4.83632e-18 18.0087)
(15.4294 -7.47864 4.88585e-19 18.5379 9.85584e-20 16.9582)
(14.3366 -6.97952 1.61886e-19 17.4764 -1.83215e-18 15.8823)
(13.2384 -6.47015 3.24446e-18 16.3596 1.56773e-18 14.7759)
(12.1302 -5.94924 3.11114e-19 15.1852 4.59654e-18 13.6353)
(11.0068 -5.4151 5.04793e-20 13.9486 -2.41947e-18 12.456)
(9.86621 -4.86733 4.71639e-18 12.6482 6.21513e-18 11.2361)
(8.70385 -4.30425 -6.21883e-19 11.2795 -6.30864e-20 9.97114)
(7.51874 -3.72598 3.61329e-18 9.84255 2.34728e-18 8.66095)
(6.32568 -3.14014 -1.23458e-19 8.35618 1.10137e-18 7.3221)
(5.13305 -2.55167 -2.24194e-19 6.83465 -1.19389e-20 5.9669)
(3.98743 -1.9837 1.42596e-22 5.33929 4.30057e-24 4.6475)
(2.75228 -1.37075 -1.4956e-21 3.70375 1.2376e-21 3.21997)
(1.63991 -0.80937 -1.25332e-19 2.14662 -2.21927e-21 1.87323)
(0.660047 -0.315242 2.26841e-19 1.21225 -3.05601e-19 0.924999)
(0.134953 -0.0122895 5.17042e-22 0.119333 9.46437e-23 0.122987)
(0.156599 -0.0165568 3.622e-20 0.154966 -4.2693e-20 0.146128)
(0.256221 -0.0415284 -2.31251e-19 0.237851 -3.86715e-19 0.216749)
(0.688033 -0.124967 -6.16088e-19 0.420758 -9.89799e-20 0.485713)
(1.75797 -0.291065 1.15402e-19 0.83783 -3.08224e-19 1.24858)
(4.47835 -0.8337 -2.78635e-18 2.06912 -1.63432e-18 3.28682)
(9.16676 -1.98315 -8.57294e-18 4.45214 1.40563e-17 6.96388)
(14.1625 -3.41913 -2.15964e-17 7.24729 7.94285e-17 11.1533)
(18.0504 -4.79948 5.49118e-18 9.79283 -4.26959e-17 14.6314)
(21.2096 -6.24726 8.66519e-18 12.4099 -3.58543e-17 17.5842)
(23.0008 -7.41569 9.32213e-18 14.5731 -6.02986e-17 19.4725)
(23.1655 -8.02445 2.48791e-17 15.7939 -7.51296e-19 20.0216)
(22.0527 -8.06902 1.68353e-18 16.0109 2.65792e-17 19.4416)
(20.1728 -7.70041 5.59687e-19 15.447 2.22847e-17 18.1186)
(17.949 -7.0922 -6.74218e-18 14.4031 7.22472e-19 16.4093)
(15.6991 -6.38932 -2.32769e-18 13.1513 3.09376e-18 14.5992)
(13.6288 -5.69204 -2.08538e-18 11.8859 2.25359e-19 12.8838)
(11.8263 -5.05225 7.67615e-19 10.709 3.26716e-18 11.3572)
(10.2983 -4.48733 -8.94661e-19 9.65582 1.23384e-18 10.0412)
(9.00574 -3.99294 3.70763e-19 8.71987 3.85083e-19 8.91335)
(8.00335 -3.60376 -2.06146e-18 7.98302 1.71139e-18 8.04106)
(7.25784 -3.30904 -2.56612e-18 7.42097 -5.59047e-18 7.39096)
(6.67293 -3.07214 4.01973e-18 6.96101 -3.55789e-19 6.87306)
(6.15162 -2.85773 5.25531e-18 6.5439 -1.20817e-17 6.40472)
(5.70676 -2.67222 4.04273e-18 6.183 5.44487e-18 5.99943)
(5.33153 -2.51295 -5.11629e-18 5.86881 2.47847e-18 5.65172)
(5.01148 -2.37536 1.2691e-18 5.5943 7.2486e-18 5.35219)
(4.73689 -2.25602 -4.50001e-19 5.35379 -8.11587e-20 5.09279)
(4.5015 -2.15276 -4.85632e-18 5.14382 1.91174e-18 4.86859)
(4.30164 -2.06436 -4.37447e-18 4.96238 -7.09577e-18 4.67684)
(4.1331 -1.98927 -5.47879e-18 4.80673 -6.30673e-18 4.51402)
(3.99258 -1.92618 -8.30809e-18 4.67429 1.32689e-19 4.37721)
(3.87581 -1.87326 -7.69236e-18 4.56101 -1.4238e-17 4.26215)
(3.77884 -1.82872 8.70331e-19 4.46273 2.07526e-18 4.16478)
(3.69714 -1.7906 4.10896e-20 4.37543 -6.6869e-18 4.08071)
(3.62463 -1.75583 -6.77072e-18 4.29156 -3.25308e-18 4.00235)
(3.55218 -1.72098 2.92328e-19 4.20664 2.67824e-20 3.92383)
(3.46431 -1.67623 5.53577e-20 4.09017 3.05205e-19 3.8166)
(3.33103 -1.61631 -2.58227e-22 3.9599 -1.33911e-21 3.6907)
(3.07696 -1.47417 4.02441e-19 3.57987 -4.68889e-19 3.31353)
(4.20506 -2.05264 -3.20053e-18 4.96992 4.35167e-18 4.91256)
(0.0771817 -0.00850847 -4.79556e-21 0.0685254 -1.36298e-20 0.0730805)
(0.04908 -0.0056507 -4.65177e-20 0.0565527 -4.76554e-20 0.0550953)
(0.0417206 -0.000574026 2.13204e-20 0.052566 7.46286e-20 0.0500448)
(0.0334111 0.00126482 3.99383e-20 0.0431256 3.54812e-20 0.0408696)
(0.0127234 2.85656e-05 -1.23475e-19 0.0175264 -6.81705e-20 0.0173017)
(0.089224 -0.0158479 -7.97334e-20 0.0573142 2.55362e-19 0.0734899)
(0.409706 -0.0921799 4.87113e-19 0.227411 7.25394e-19 0.314628)
(1.02344 -0.264808 5.42717e-19 0.566802 -1.11138e-18 0.788718)
(1.74166 -0.496476 -9.31058e-19 1.0148 1.27559e-18 1.37197)
(2.45865 -0.759787 2.22762e-19 1.52352 -5.86832e-19 1.98141)
(3.28573 -1.08487 -1.09712e-18 2.16199 2.19362e-18 2.70688)
(4.35907 -1.51498 -5.65158e-18 3.0203 -6.73785e-18 3.66806)
(5.72302 -2.06991 1.63261e-18 4.14129 -3.50881e-18 4.91109)
(7.30228 -2.73094 5.56445e-19 5.49515 -2.05047e-18 6.38109)
(8.92252 -3.43957 2.67723e-18 6.97464 3.0191e-18 7.93569)
(10.3551 -4.10718 2.79791e-18 8.40867 6.45309e-19 9.37608)
(11.3893 -4.64114 1.04822e-18 9.61079 5.27757e-19 10.504)
(11.8954 -4.97243 4.63812e-18 10.4328 3.0494e-19 11.1782)
(11.8607 -5.07673 1.21268e-18 10.809 -4.03552e-19 11.3567)
(11.3807 -4.97737 -9.12799e-19 10.7674 -1.11937e-18 11.0977)
(10.5866 -4.71997 3.71539e-18 10.3824 1.97645e-18 10.5052)
(9.7182 -4.403 1.65986e-18 9.84511 2.17692e-18 9.79329)
(8.94044 -4.10141 -3.25823e-18 9.30688 -3.72177e-18 9.12274)
(8.23031 -3.81406 -6.8207e-18 8.7694 -9.29951e-18 8.49089)
(7.62229 -3.56119 -7.162e-18 8.28205 -6.4372e-18 7.93881)
(7.10585 -3.34162 7.99238e-18 7.84829 5.19679e-19 7.46067)
(6.66071 -3.14948 -5.70699e-19 7.46169 1.814e-19 7.04358)
(6.27475 -2.98074 2.61639e-19 7.11634 -2.1167e-18 6.67792)
(5.93923 -2.83229 5.88667e-18 6.80706 6.07849e-18 6.35633)
(5.64674 -2.70129 -5.29464e-18 6.52845 7.47916e-18 6.072)
(5.39076 -2.58517 1.21931e-17 6.27557 1.53424e-18 5.81895)
(5.16608 -2.48182 -1.14062e-18 6.04432 1.15642e-17 5.5923)
(4.96953 -2.38999 1.27728e-18 5.83235 5.23016e-18 5.38911)
(4.79777 -2.30827 1.05614e-17 5.63652 -9.36127e-19 5.20629)
(4.65019 -2.23664 -9.20642e-18 5.45772 7.11631e-19 5.04422)
(4.52725 -2.17522 -9.02984e-19 5.29652 2.67366e-18 4.90283)
(4.42945 -2.12582 2.24117e-19 5.16306 4.20615e-21 4.78913)
(4.35301 -2.08283 7.94286e-18 5.03368 -9.48746e-19 4.68316)
(4.2865 -2.05595 -2.6792e-19 4.97656 -3.23312e-21 4.63498)
(4.15299 -1.95882 6.05869e-18 4.67167 -9.12699e-19 4.35388)
(4.43799 -2.13227 2.67121e-18 5.13031 -5.20197e-18 4.83734)
(0.0540806 -0.00579494 3.91929e-21 0.0478737 9.09388e-21 0.0510789)
(0.0460779 -0.005968 6.75618e-21 0.0488523 2.69999e-20 0.0472894)
(0.0375991 -0.00361338 -2.23808e-20 0.0455609 -3.37663e-20 0.0413176)
(0.0312863 -0.00113428 -2.30213e-20 0.0397746 -1.4757e-20 0.0351908)
(0.0264888 0.000188395 2.96341e-20 0.0334346 2.35293e-20 0.0296139)
(0.0194267 0.000547927 2.14098e-20 0.0236102 1.43367e-20 0.0212748)
(0.0112652 0.000377466 -2.14235e-21 0.0130225 -7.34196e-21 0.0120057)
(0.00631844 0.000259598 5.0717e-22 0.00716782 -7.32036e-22 0.00661896)
(0.00274613 0.000155261 -2.35014e-21 0.00301632 3.10508e-21 0.00273303)
(0.00363441 -0.000150035 -2.36316e-20 0.00305244 2.5059e-21 0.0031595)
(0.0109644 -0.00106266 4.20038e-21 0.00887877 1.45188e-20 0.00970236)
(0.0242201 -0.00376575 5.50294e-20 0.0189546 8.4352e-20 0.0213482)
(0.0538018 -0.0127359 -1.8287e-21 0.0400602 -2.44245e-21 0.0467021)
(0.121152 -0.0383235 3.60838e-19 0.0878391 -3.88731e-20 0.104334)
(0.258571 -0.0930257 -6.52097e-20 0.191872 -1.73132e-19 0.225163)
(0.518396 -0.197173 -4.86961e-19 0.400603 -6.15739e-19 0.459661)
(0.96291 -0.379131 -1.15109e-18 0.774681 -2.34529e-20 0.869447)
(1.63353 -0.66116 2.58981e-19 1.36494 -5.9268e-19 1.50052)
(2.52513 -1.0472 -8.08505e-19 2.1881 -5.72991e-19 2.35854)
(3.57004 -1.51363 -4.26489e-19 3.20471 3.00245e-19 3.38969)
(4.65648 -2.0156 -7.33162e-19 4.329 -1.10562e-18 4.49635)
(5.59645 -2.46817 -2.34335e-18 5.38042 -1.00917e-19 5.49352)
(6.26558 -2.80685 -7.39831e-20 6.20677 1.20998e-18 6.24112)
(6.65287 -3.02027 -5.91727e-18 6.76854 1.27083e-18 6.71752)
(6.82015 -3.13106 -1.94619e-18 7.1037 6.8652e-18 6.97141)
(6.8403 -3.16963 -1.39264e-17 7.27273 -1.14505e-18 7.06713)
(6.76284 -3.15805 1.56819e-18 7.32063 1.36411e-18 7.05232)
(6.62682 -3.1143 -6.6706e-18 7.28542 1.99447e-18 6.96567)
(6.46103 -3.05211 7.8824e-18 7.19701 -4.29602e-18 6.83684)
(6.2856 -2.98136 1.22179e-17 7.07758 -7.77361e-19 6.68717)
(6.11337 -2.90863 -5.96665e-18 6.94235 -4.29665e-18 6.53113)
(5.95233 -2.83825 2.51505e-17 6.80194 -3.8188e-18 6.37819)
(5.80744 -2.77292 -9.61572e-19 6.66318 -1.14495e-19 6.23429)
(5.68045 -2.71377 1.21257e-18 6.52929 -3.22237e-18 6.10203)
(5.57254 -2.66166 5.59557e-19 6.40274 2.47263e-18 5.98368)
(5.4836 -2.6164 -2.20766e-18 6.28308 1.11267e-18 5.87844)
(5.41352 -2.5796 1.82964e-19 6.17956 -3.55751e-20 5.79283)
(5.35926 -2.5455 1.90453e-18 6.06885 -9.13117e-19 5.70605)
(5.31479 -2.52819 -7.28707e-20 6.02846 6.72263e-21 5.67851)
(5.25332 -2.45765 2.12547e-18 5.77055 7.61485e-19 5.45529)
(5.39506 -2.55701 1.52755e-19 5.97977 9.14594e-19 5.79911)
(0.0375514 -0.00392352 3.08366e-22 0.032971 -5.88721e-24 0.0352609)
(0.0336904 -0.00437599 7.854e-21 0.0346427 6.63532e-21 0.0341062)
(0.0288729 -0.00318506 3.61954e-20 0.0338744 4.35649e-20 0.0313452)
(0.0239516 -0.00146551 4.21095e-20 0.0303199 2.94212e-20 0.0271381)
(0.0200435 -6.81878e-05 -5.40237e-20 0.02589 -4.0699e-20 0.0230054)
(0.017617 0.000745052 2.87397e-20 0.0222081 4.43355e-21 0.0199831)
(0.0151132 0.000971288 -2.31064e-21 0.0180467 1.76359e-21 0.0166494)
(0.0115685 0.00074954 1.50842e-21 0.0129589 -1.30953e-21 0.0123071)
(0.00800093 0.000442433 5.64838e-21 0.00851102 2.81809e-21 0.00827777)
(0.00547332 0.000250713 5.55277e-21 0.00564586 2.05535e-21 0.00556903)
(0.00391908 0.000153281 1.55782e-21 0.00398177 -1.41784e-22 0.00395365)
(0.00286373 9.53249e-05 -1.88472e-23 0.00288965 -5.54589e-22 0.0028772)
(0.00195501 5.04732e-05 -8.05012e-23 0.00196542 1.84344e-23 0.00195989)
(0.00106584 1.69564e-05 -2.77021e-22 0.00106837 -2.04421e-22 0.0010668)
(0.000360922 2.25384e-06 7.93486e-24 0.000361083 1.82212e-23 0.000360933)
(6.45174e-05 8.87084e-08 -1.56008e-24 6.45132e-05 2.51871e-25 6.45113e-05)
(8.74214e-05 2.25799e-07 2.89958e-24 8.73614e-05 2.84999e-24 8.73764e-05)
(0.000855046 3.4911e-05 -5.54981e-23 0.000821982 -2.29527e-22 0.000833939)
(0.00551636 -0.000513521 -2.21898e-22 0.00323938 8.3097e-21 0.00417557)
(0.0403917 -0.0135922 4.68633e-21 0.0286607 1.98614e-20 0.0338206)
(0.145632 -0.0573685 1.61074e-19 0.118381 7.07879e-20 0.130958)
(0.363999 -0.151604 5.11396e-19 0.318539 1.74557e-19 0.340306)
(0.697271 -0.299559 -1.50337e-19 0.640882 -4.73238e-20 0.668183)
(1.12273 -0.492665 -1.73559e-18 1.07063 6.43718e-19 1.09593)
(1.6145 -0.719624 5.32555e-18 1.58502 -6.04316e-19 1.59915)
(2.14348 -0.967086 3.83829e-18 2.15546 2.42958e-18 2.14854)
(2.67727 -1.22001 2.89065e-18 2.74819 -7.73907e-19 2.71147)
(3.18869 -1.46531 4.24182e-18 3.33257 1.04248e-18 3.25932)
(3.65881 -1.69341 -5.22449e-18 3.88484 -1.43436e-18 3.77089)
(4.077 -1.89841 -9.88376e-18 4.38898 -1.32836e-18 4.23279)
(4.43958 -2.07769 2.45159e-19 4.83591 1.21691e-18 4.63866)
(4.74839 -2.2313 -1.09078e-17 5.22292 -3.87426e-18 4.98793)
(5.00895 -2.36109 8.51307e-19 5.55148 -3.54492e-20 5.28377)
(5.22927 -2.47029 1.71413e-18 5.82692 -1.06706e-18 5.53254)
(5.4172 -2.56219 2.35997e-19 6.05483 7.17333e-20 5.74105)
(5.57827 -2.63879 1.00013e-17 6.23774 -1.02231e-18 5.9128)
(5.71686 -2.70326 -4.034e-19 6.38528 -4.8337e-19 6.05684)
(5.83627 -2.75306 -9.28383e-18 6.48348 1.06161e-18 6.16038)
(5.9297 -2.80093 8.71464e-20 6.59756 5.33684e-21 6.2781)
(6.03653 -2.8083 2.07097e-18 6.52846 1.05323e-19 6.23174)
(6.10568 -2.89399 9.49486e-18 6.7693 -6.46244e-19 6.56259)
(0.0255089 -0.00264493 1.40852e-23 0.0223613 -1.9987e-22 0.0239642)
(0.0241877 -0.00310773 -9.54458e-23 0.0241753 -1.3931e-21 0.0241596)
(0.0221062 -0.00266914 -9.40756e-21 0.0249622 -1.98948e-20 0.0235444)
(0.0194532 -0.00164966 -1.47599e-20 0.0239644 -1.93365e-20 0.0217495)
(0.0169467 -0.000593254 3.48932e-20 0.0217959 3.70728e-20 0.0194041)
(0.0150216 0.000214963 -3.46944e-20 0.019441 -2.60513e-20 0.0172413)
(0.0136862 0.000764967 1.81612e-20 0.0173583 7.86551e-21 0.0155229)
(0.0125684 0.00108617 -2.72541e-20 0.0153157 -8.61498e-21 0.0139445)
(0.0112948 0.00118179 -1.83386e-23 0.0130782 -2.03605e-21 0.0121897)
(0.00977839 0.00109887 -1.87072e-20 0.0107642 -1.86151e-20 0.0102671)
(0.00820384 0.000930961 -1.02994e-20 0.00866843 -3.87132e-21 0.00842221)
(0.00683514 0.000760739 1.79047e-21 0.00702213 -5.30773e-22 0.00691269)
(0.00580148 0.000623694 3.63815e-21 0.00585533 2.17219e-21 0.00581819)
(0.00502051 0.000511224 -7.5542e-21 0.00500583 2.27296e-21 0.00500953)
(0.00429541 0.000397553 1.36408e-20 0.00424592 -6.55432e-24 0.00427047)
(0.00342507 0.000263846 1.38084e-21 0.00337063 1.39074e-21 0.0033986)
(0.00242898 0.000137153 9.00505e-22 0.00239071 -7.35413e-22 0.00241046)
(0.000897679 1.94762e-05 -1.52495e-22 0.000890855 2.95018e-24 0.000894352)
(0.00181475 8.03515e-05 5.96483e-23 0.00178017 -2.05839e-22 0.00179765)
(0.00665607 0.000999833 2.18656e-22 0.00612516 9.48306e-22 0.00638893)
(0.00380572 0.000381302 6.27725e-22 0.00354288 -3.22755e-22 0.00367179)
(0.00248319 0.000194225 -1.02335e-21 0.00229298 -8.79151e-22 0.00238585)
(0.00176003 0.000116766 -4.93329e-24 0.00156957 -3.46321e-22 0.00166202)
(0.00686369 0.000559746 -2.15228e-20 0.00359598 1.838e-20 0.00518266)
(0.0179022 -0.00338102 -3.04912e-19 0.00867744 -1.18682e-19 0.0131857)
(0.0477043 -0.0162446 1.0656e-19 0.0326135 -8.73515e-20 0.0400301)
(0.107352 -0.0424497 -4.44461e-19 0.0870786 -1.14092e-19 0.0970902)
(0.207521 -0.0872798 -6.72643e-21 0.184153 -2.93177e-19 0.195732)
(0.358526 -0.155828 -2.2269e-19 0.336069 2.63055e-19 0.347176)
(0.569042 -0.252391 1.55281e-18 0.553514 6.49001e-19 0.561001)
(0.845273 -0.380058 -3.00324e-19 0.844362 1.47327e-19 0.844195)
(1.1908 -0.540636 4.36985e-19 1.21337 9.65724e-19 1.20093)
(1.60584 -0.734241 -1.98214e-19 1.66104 -2.44712e-19 1.63158)
(2.08891 -0.960145 -6.37143e-18 2.18564 1.86737e-19 2.1346)
(2.63332 -1.21511 8.46801e-19 2.77919 -4.13861e-19 2.70287)
(3.22484 -1.49204 -1.76812e-19 3.42389 -2.67952e-19 3.32038)
(3.8416 -1.78112 -9.659e-18 4.09665 1.16073e-18 3.96632)
(4.46636 -2.07076 3.43622e-19 4.76408 3.3185e-19 4.61032)
(5.05448 -2.35282 2.26456e-19 5.42922 2.43866e-20 5.25161)
(5.63454 -2.58879 -8.16739e-18 5.91659 8.36788e-19 5.73518)
(6.07317 -2.87309 -7.7908e-18 6.70772 1.55592e-18 6.50446)
(0.0176846 -0.00182322 -1.95335e-21 0.0154786 -1.20645e-21 0.0166009)
(0.0172424 -0.00218184 1.06832e-20 0.0168582 7.83427e-21 0.017035)
(0.0166642 -0.0021088 -1.13292e-20 0.0181626 -6.37374e-21 0.0174027)
(0.0156215 -0.00161126 -2.65537e-21 0.0186215 3.72627e-21 0.017112)
(0.0142851 -0.000898469 3.45453e-21 0.0180323 -2.61137e-21 0.0161402)
(0.0128966 -0.000213766 1.02564e-20 0.0166772 9.84383e-21 0.0147621)
(0.0116454 0.00032937 -9.5121e-21 0.0150199 -1.20376e-20 0.0133128)
(0.0105792 0.000717781 2.80036e-20 0.0133207 1.66136e-20 0.0119427)
(0.00958235 0.000950825 1.0399e-20 0.0115714 1.72298e-21 0.0105831)
(0.00851836 0.00102102 -1.52485e-20 0.00975021 3.07948e-21 0.00914837)
(0.00737482 0.000956984 1.29713e-20 0.00798671 2.57746e-21 0.00769526)
(0.00627376 0.000828613 -1.20263e-20 0.00647804 -3.19142e-21 0.00638836)
(0.00535753 0.00070038 1.17797e-20 0.00533548 6.87642e-21 0.0053588)
(0.00467224 0.000598507 -2.71493e-21 0.00452848 -2.2778e-21 0.00461284)
(0.00416787 0.000520268 -1.91891e-20 0.00395157 -1.09297e-20 0.00407047)
(0.00378631 0.000458076 6.45611e-22 0.00352276 3.84377e-21 0.00366236)
(0.00348805 0.000405964 -8.30912e-21 0.00319401 -9.448e-22 0.00334648)
(0.0031812 0.000346867 3.73165e-21 0.0028812 1.04219e-21 0.00303498)
(0.00279317 0.000271969 -5.94171e-21 0.00252177 -1.19668e-21 0.0026599)
(0.00238676 0.000200246 1.43389e-21 0.00216265 -6.79204e-22 0.00227596)
(0.00195157 0.000134202 2.35359e-22 0.00178678 7.91741e-22 0.00186974)
(0.00105226 4.04497e-05 -2.40498e-22 0.000998491 -3.67556e-23 0.00102551)
(4.54686e-05 8.07141e-08 -8.17492e-25 4.5355e-05 -1.4705e-25 4.54117e-05)
(1.36323e-05 7.42361e-09 1.34517e-27 1.36214e-05 1.0359e-26 1.36269e-05)
(0.00301791 0.000300185 -3.05894e-21 0.00255455 2.09191e-21 0.00278522)
(0.0071534 0.0012709 1.64275e-20 0.00501698 3.6357e-23 0.00607963)
(8.24181e-05 2.96762e-07 -2.63487e-24 8.18429e-05 7.52401e-25 8.21287e-05)
(0.000136007 8.07859e-07 -2.19908e-23 0.000134011 1.12528e-24 0.000135003)
(0.000810896 2.18953e-05 1.2817e-22 0.000723456 2.10277e-22 0.000767043)
(0.00449368 7.28864e-05 3.2123e-20 0.00252958 -5.80163e-21 0.00351229)
(0.0127635 -0.00180455 8.66567e-20 0.00584838 -2.71144e-20 0.00932339)
(0.0300036 -0.00855729 2.76348e-19 0.0175596 -3.78869e-20 0.0238446)
(0.0670724 -0.0243095 -4.2471e-19 0.0486665 4.39271e-20 0.0580103)
(0.139255 -0.0559349 -1.18247e-18 0.115104 2.63691e-19 0.127396)
(0.268068 -0.113408 -1.68358e-18 0.239824 1.50837e-19 0.254156)
(0.481253 -0.209508 2.39683e-18 0.452275 -1.90086e-19 0.466626)
(0.808635 -0.358284 3.25885e-18 0.785037 -1.94155e-19 0.79625)
(1.28687 -0.574954 4.24071e-18 1.2709 -3.60277e-19 1.27572)
(1.92847 -0.872034 5.34431e-18 1.94653 -4.58172e-19 1.9389)
(2.73456 -1.22005 1.41381e-20 2.70733 -1.24795e-19 2.69424)
(3.75208 -1.74715 -7.71366e-18 3.9944 2.41503e-19 3.93689)
(0.0123746 -0.00127639 -7.64189e-22 0.0108333 -6.02757e-22 0.0116207)
(0.0122182 -0.00152492 -6.23386e-21 0.0117745 -4.70421e-21 0.0119904)
(0.0121542 -0.00156691 7.00818e-21 0.0128814 6.77952e-21 0.0125149)
(0.0118227 -0.00135599 8.91703e-21 0.0136601 6.73858e-21 0.0127432)
(0.0112044 -0.000935754 1.688e-20 0.0138225 8.77132e-21 0.0125162)
(0.01046 -0.000436514 -1.89792e-20 0.0134023 -1.59468e-20 0.0119317)
(0.00971609 2.86305e-05 -3.02648e-20 0.0125843 -1.26061e-20 0.0111498)
(0.00901096 0.000403154 -1.69057e-20 0.0115292 -1.06485e-20 0.0102716)
(0.00830155 0.000662962 3.28707e-21 0.0102995 1.71156e-21 0.00930551)
(0.00752574 0.000795694 1.54317e-20 0.00893562 1.0832e-20 0.00823699)
(0.00666916 0.000810652 -2.9926e-20 0.00753554 -1.18956e-20 0.00710572)
(0.00579103 0.000746953 4.67148e-21 0.00624064 2.84335e-21 0.00601454)
(0.00499209 0.000654235 2.5706e-20 0.00516619 2.26751e-21 0.00507522)
(0.00433947 0.000565469 -1.98982e-20 0.00434157 -4.78019e-21 0.00433633)
(0.00383154 0.000490422 -5.09036e-21 0.00372105 3.58183e-21 0.00377246)
(0.00343708 0.000428034 2.42397e-20 0.00324654 3.57171e-21 0.0033381)
(0.0031311 0.000375981 5.17281e-21 0.00287947 -2.91106e-22 0.00300187)
(0.00290456 0.000333724 -4.37429e-21 0.00260124 6.53462e-22 0.00275015)
(0.00272419 0.000294887 -3.61223e-21 0.00237676 8.0987e-22 0.00254858)
(0.00253642 0.000250585 -6.35242e-21 0.00216235 -4.93225e-22 0.00234814)
(0.002326 0.00020166 1.06246e-20 0.00194924 4.97861e-22 0.00213704)
(0.00220227 0.000168471 -3.51183e-21 0.00181398 -2.65267e-23 0.00200823)
(0.00193772 0.000123886 -2.0007e-21 0.00159605 3.61376e-22 0.00176699)
(0.00165511 8.796e-05 1.88559e-23 0.00137746 4.19831e-23 0.00151633)
(0.00127406 5.25549e-05 -1.08755e-21 0.00109222 -1.44045e-22 0.00118332)
(0.000968926 3.08251e-05 7.08698e-22 0.000855442 4.36418e-25 0.000912313)
(0.000636317 1.36714e-05 -3.45141e-22 0.000583748 3.07304e-23 0.000610055)
(0.000324551 3.67224e-06 1.5654e-23 0.000309972 1.47724e-23 0.000317256)
(0.000166873 9.79115e-07 4.87588e-23 0.000162864 -5.86303e-24 0.000164865)
(0.000383458 4.86797e-06 1.95915e-23 0.000362592 -4.83145e-23 0.000373001)
(0.00121967 4.09883e-05 -5.77618e-21 0.00102851 3.73219e-22 0.00112383)
(0.000125672 4.64858e-07 -1.96325e-23 0.000123108 -2.57612e-24 0.000124387)
(3.42227e-05 2.63764e-08 2.14318e-24 3.40118e-05 8.22835e-26 3.41173e-05)
(0.0112894 0.00020271 1.60876e-19 0.00473647 -5.57964e-21 0.00803014)
(0.000477484 -5.23574e-06 1.172e-22 0.000435914 7.56028e-23 0.000456964)
(0.00671821 -0.00110818 -3.20319e-23 0.00385096 -2.79617e-21 0.00531203)
(0.0242258 -0.00746986 -1.06123e-21 0.0152656 -7.36384e-21 0.0198975)
(0.0668723 -0.0250726 -5.41766e-21 0.0505468 -1.82381e-20 0.0588417)
(0.166737 -0.0692999 -9.74245e-19 0.144541 7.55901e-20 0.156885)
(0.356107 -0.148914 1.69471e-20 0.314903 -1.81972e-21 0.33164)
(0.814963 -0.366089 2.49378e-18 0.803215 -2.4606e-19 0.825115)
(0.00875388 -0.000907195 5.54489e-22 0.00767506 3.65683e-22 0.00822677)
(0.00868538 -0.00107306 -2.84561e-23 0.00829612 3.03298e-22 0.00848724)
(0.00876207 -0.0011349 1.14683e-20 0.00909922 6.3335e-21 0.00892899)
(0.00875842 -0.00106381 6.02121e-22 0.00984964 -9.59122e-22 0.00930389)
(0.00858803 -0.000848402 1.36841e-21 0.0103292 -1.47569e-21 0.00945744)
(0.00828126 -0.000532972 4.28385e-22 0.0104382 3.56457e-21 0.00935539)
(0.00789746 -0.000185657 1.28762e-20 0.0101929 1.00179e-20 0.00903801)
(0.00747304 0.000136769 -1.13321e-21 0.00965836 -8.99034e-22 0.00855847)
(0.00701124 0.000396317 4.20847e-22 0.0088971 5.51673e-21 0.00794957)
(0.00649152 0.000568388 3.09783e-20 0.00796286 8.20728e-21 0.00722595)
(0.00590569 0.000646306 2.58208e-21 0.0069349 3.20973e-21 0.00642077)
(0.00527965 0.000646222 -2.25295e-20 0.00591779 -5.56504e-21 0.00559931)
(0.00467137 0.00059991 -3.53374e-21 0.00501119 -6.31958e-21 0.00484205)
(0.00413651 0.000537572 5.75642e-21 0.00426821 5.97574e-21 0.00420387)
(0.00369342 0.000475688 -6.90277e-21 0.00368258 -3.15073e-21 0.00369022)
(0.00333193 0.000419419 -5.96599e-21 0.00322091 -4.10747e-21 0.00327875)
(0.00303675 0.000369497 -9.48425e-21 0.00285275 -1.32693e-21 0.00294679)
(0.00279668 0.000325535 1.36503e-20 0.00255702 2.51643e-21 0.00267862)
(0.00260076 0.000286134 -3.48351e-21 0.00231605 -2.80834e-22 0.00246001)
(0.00243808 0.000249512 1.22117e-22 0.00211506 1.30533e-21 0.00227794)
(0.00230233 0.000214685 -4.52423e-22 0.00194577 -2.85971e-21 0.00212513)
(0.0021896 0.000181881 1.10624e-21 0.00180435 1.56003e-21 0.00199791)
(0.00209041 0.000151682 -1.13918e-21 0.00168395 3.07162e-22 0.00188778)
(0.00196936 0.000121428 -2.68833e-22 0.00156161 -2.6959e-23 0.00176579)
(0.0018684 9.64975e-05 -6.323e-21 0.00146436 4.30285e-22 0.00166675)
(0.00174157 7.22675e-05 4.52051e-21 0.00136112 -8.62255e-23 0.00155178)
(0.00163411 5.2597e-05 -3.27434e-22 0.00127754 -9.82236e-23 0.00145615)
(0.00154979 3.7062e-05 -1.92324e-21 0.00121381 2.70721e-22 0.00138199)
(0.00138766 2.2035e-05 -3.00264e-21 0.00110469 -4.00481e-22 0.0012463)
(0.0012047 1.10916e-05 -9.03181e-22 0.000981482 1.93075e-22 0.00109317)
(0.000972997 3.87766e-06 2.39891e-21 0.00081997 1.9538e-22 0.000896498)
(0.000733341 4.09046e-07 -5.10892e-22 0.000641984 1.4786e-22 0.000687628)
(0.000413444 -4.21443e-07 -2.94389e-24 0.000382362 -4.5029e-24 0.000397875)
(2.90278e-05 -5.03977e-09 -1.63113e-24 2.88604e-05 -8.75554e-26 2.89438e-05)
(7.84794e-05 -6.02803e-08 2.52655e-23 7.72466e-05 -1.73578e-24 7.78614e-05)
(0.000323233 -1.54038e-06 -6.18431e-23 0.000302885 8.93477e-25 0.000313026)
(0.00141342 -4.09673e-05 7.99603e-22 0.00109388 7.45397e-23 0.00125411)
(1.69871e-05 -1.31408e-08 -2.77905e-24 1.69263e-05 2.16208e-25 1.69566e-05)
(0.00128592 -9.67086e-05 -2.68524e-22 0.00107079 4.45788e-23 0.00118293)
(0.00454986 -0.000917751 -1.1002e-22 0.00323337 1.50021e-23 0.00386038)
(0.0379712 -0.0144335 3.10422e-19 0.0291755 -1.1725e-20 0.0345201)
(0.00622846 -0.000651048 -1.75628e-21 0.0054762 -9.47688e-22 0.00586154)
(0.00618634 -0.000759871 1.89222e-21 0.0058823 9.17678e-22 0.00603247)
(0.00626949 -0.000811478 1.93042e-22 0.00642319 -1.04037e-21 0.00634597)
(0.00635463 -0.000794931 -8.83702e-21 0.00699822 -5.29051e-21 0.00667724)
(0.00636773 -0.000693266 -5.59731e-22 0.00748271 1.40207e-21 0.00692604)
(0.00629246 -0.000512856 1.02278e-20 0.0077814 4.51154e-21 0.00703693)
(0.0061435 -0.000282315 -5.60428e-22 0.00785044 -3.6538e-21 0.0069958)
(0.00594315 -3.85292e-05 -1.96666e-20 0.00769365 -6.51708e-21 0.00681648)
(0.00569905 0.000184894 3.3231e-20 0.00733238 1.22544e-20 0.00651427)
(0.00540628 0.000361143 -1.0504e-20 0.00679892 -1.02968e-20 0.00610255)
(0.00505908 0.000474241 1.31411e-20 0.00614268 3.85401e-21 0.00560182)
(0.00466379 0.000523637 1.3378e-20 0.00543031 5.07851e-21 0.00504801)
(0.00424687 0.000523269 -2.10299e-20 0.00473551 -4.87718e-21 0.00449186)
(0.00384596 0.000493828 1.54755e-20 0.00411596 1.38356e-21 0.00398143)
(0.0034861 0.0004521 -2.027e-20 0.00359313 -1.77758e-21 0.00354001)
(0.00317432 0.000407449 6.24254e-21 0.0031613 3.21094e-21 0.00316801)
(0.00290816 0.000364012 3.98802e-21 0.0028059 7.52096e-22 0.0028569)
(0.00268298 0.000323368 -4.05425e-22 0.00251312 6.37922e-22 0.00259767)
(0.00249314 0.000285692 4.11556e-24 0.0022705 -2.89313e-23 0.00238137)
(0.00233112 0.000250234 -4.1554e-22 0.00206606 -6.7404e-22 0.00219815)
(0.00219078 0.00021644 -5.7694e-21 0.00189148 3.9269e-22 0.00204066)
(0.00206773 0.000184613 7.18171e-21 0.0017424 -2.08951e-22 0.00190465)
(0.00195695 0.000155434 -1.31281e-21 0.00161426 5.2892e-22 0.00178519)
(0.00185661 0.000129417 5.34269e-23 0.00150426 -8.96438e-23 0.00167997)
(0.0017728 0.000107044 1.15522e-22 0.00141509 5.98145e-22 0.00159361)
(0.00170504 8.73596e-05 1.4681e-21 0.00134445 3.63124e-23 0.00152458)
(0.0016547 6.96562e-05 -3.29646e-21 0.0012912 2.44277e-23 0.00147281)
(0.0016196 5.32168e-05 3.39886e-21 0.00125258 3.70313e-23 0.00143591)
(0.00160711 3.79024e-05 -3.40028e-21 0.00123212 4.17698e-22 0.00141942)
(0.00158126 2.19559e-05 3.45118e-21 0.00120783 -1.41895e-22 0.0013944)
(0.00154693 6.29217e-06 -1.62782e-21 0.00118249 -4.39645e-22 0.0013646)
(0.00147653 -8.11297e-06 4.6385e-21 0.00113902 -2.24098e-22 0.00130767)
(0.0014218 -2.05304e-05 2.60088e-21 0.00110726 -2.67594e-22 0.00126442)
(0.00130202 -2.82922e-05 2.79987e-24 0.00103564 2.65099e-22 0.0011687)
(0.00109549 -2.82813e-05 1.63201e-21 0.000902731 -3.11068e-22 0.000999012)
(0.000774579 -1.86834e-05 -1.10503e-21 0.000673757 7.53112e-23 0.000724043)
(0.000460955 -8.45345e-06 7.90497e-22 0.000423421 -6.61568e-23 0.000442151)
(8.2939e-05 -3.43362e-07 2.48818e-23 8.16148e-05 -1.04161e-24 8.22706e-05)
(9.8685e-05 -5.82501e-07 -2.75517e-24 9.68418e-05 -1.87607e-25 9.77655e-05)
(0.000149784 -1.60959e-06 7.00219e-24 0.000145313 -3.35167e-25 0.000147492)
(0.00180177 -0.00019835 -9.21821e-21 0.00142914 5.46734e-22 0.00162832)
(0.00444881 -0.000470449 -4.657e-24 0.00392691 6.83502e-24 0.00419467)
(0.00441715 -0.000541462 -1.13208e-20 0.0041943 -5.34307e-21 0.00430458)
(0.00447668 -0.000578306 -2.18148e-22 0.00454937 -6.07857e-22 0.00451287)
(0.00456427 -0.000579267 -1.31792e-20 0.00495293 -5.3351e-21 0.00475915)
(0.00463554 -0.000533564 2.04559e-20 0.00534512 1.01224e-20 0.00499088)
(0.00466775 -0.000437297 -1.46166e-20 0.0056655 -8.33258e-21 0.00516673)
(0.00465437 -0.000297984 -7.09663e-21 0.00586678 -1.51979e-21 0.0052599)
(0.00459769 -0.000132634 6.2707e-21 0.00592226 3.7119e-21 0.00525841)
(0.00450035 3.7265e-05 -2.52172e-20 0.00582411 -1.14163e-20 0.00516011)
(0.00436065 0.000190197 -1.47486e-20 0.00557929 -7.2507e-21 0.00496806)
(0.00417769 0.000309224 -7.25133e-21 0.0052134 -2.05723e-21 0.00469408)
(0.0039528 0.000385723 3.87943e-22 0.00476465 1.19602e-21 0.00435758)
(0.00369613 0.000420842 -1.76194e-21 0.00428103 2.10642e-21 0.0039878)
(0.00342818 0.000424061 -1.38185e-20 0.00381014 -4.04368e-21 0.00361874)
(0.0031682 0.000407109 1.99463e-20 0.00338246 5.63989e-21 0.00327533)
(0.0029279 0.000379435 1.44045e-21 0.00300922 -1.76291e-22 0.00296889)
(0.00271194 0.00034707 -8.60631e-21 0.0026897 -2.70587e-21 0.00270129)
(0.00252128 0.000313447 2.30776e-20 0.00241866 3.49171e-21 0.00247046)
(0.00235477 0.000280257 -5.02832e-21 0.00218929 -6.55491e-22 0.00227254)
(0.00220899 0.000247936 -3.70357e-21 0.00199366 -1.14188e-21 0.00210183)
(0.00207994 0.000216555 3.96487e-21 0.00182531 1.07183e-21 0.00195308)
(0.00196537 0.000186819 -5.28083e-21 0.00168151 -9.65622e-22 0.00182385)
(0.00186181 0.000159382 5.69204e-21 0.00155829 1.16236e-21 0.00171039)
(0.00176703 0.00013456 -1.10674e-21 0.00145188 -8.21935e-22 0.00160968)
(0.00168374 0.000112707 -9.21182e-22 0.00136248 -1.12e-22 0.00152331)
(0.00161415 9.35784e-05 6.53338e-21 0.00128978 1.52937e-22 0.00145219)
(0.00155764 7.64612e-05 -4.34484e-22 0.00123155 1.33451e-22 0.00139481)
(0.00151245 6.07504e-05 -7.91199e-23 0.00118532 -6.77836e-22 0.00134903)