/*--------------------------------*- C++ -*----------------------------------*\
| =========                 |                                                 |
| \\      /  F ield         | OpenFOAM: The Open Source CFD Toolbox           |
|  \\    /   O peration     | Version:  2312                                  |
|   \\  /    A nd           | Website:  www.openfoam.com                      |
|    \\/     M anipulation  |                                                 |
\*---------------------------------------------------------------------------*/
FoamFile
{
    version     2.0;
    format      ascii;
    arch        "LSB;label=32;scalar=64";
    class       volScalarField;
    location    "100";
    object      turbulenceProperties:L;
}
// * * * * * * * * * * * * * * * * * * * * * * * * * * * * * * * * * * * * * //

dimensions      [0 1 0 0 0 0 0];

internalField   nonuniform List<scalar> 
11040
(
0.000222494
0.000200633
0.000223139
0.000285884
0.000387782
0.000672008
0.000939189
0.00102311
0.00104377
0.00107836
0.00110892
0.00112966
0.00114201
0.00114812
0.00115041
0.0011512
0.0011523
0.00115471
0.00115859
0.00116375
0.00117053
0.00117979
0.00119119
0.00120302
0.0012155
0.00122888
0.00124304
0.00125804
0.00127399
0.00129112
0.00130967
0.00132995
0.00135238
0.00137753
0.00140622
0.00143946
0.001479
0.00152409
0.00156108
0.0014875
0.00196492
0.000496465
0.000451156
0.000401392
0.00041521
0.000428185
0.000536112
0.000712702
0.000901927
0.00114232
0.00139345
0.00164228
0.00188548
0.00211112
0.00231313
0.00249797
0.00267757
0.00286076
0.00304823
0.0032322
0.00340338
0.00354146
0.00364868
0.00374345
0.00383436
0.0039241
0.0040081
0.00408536
0.0041559
0.00422
0.00427783
0.00432997
0.00437648
0.00441779
0.00445369
0.00448427
0.00451055
0.00453499
0.00456238
0.00459322
0.00463712
0.00444769
0.000653538
0.000763217
0.000803972
0.000898193
0.00151103
0.000885328
0.000701617
0.000758641
0.000847637
0.000948652
0.00108842
0.00128349
0.0015322
0.00182019
0.00213026
0.00244606
0.00275312
0.00304082
0.0033053
0.00354921
0.0037871
0.00401774
0.00424012
0.00445487
0.00467022
0.00487565
0.0050681
0.00524736
0.00541489
0.00557295
0.00572358
0.00586781
0.00600546
0.00613577
0.00625621
0.00636372
0.00645477
0.00653174
0.00658839
0.00670216
0.00664903
0.000780896
0.000810146
0.000866079
0.000936092
0.00101888
0.00120601
0.00163522
0.00220728
0.00334424
0.00307261
0.00180122
0.00131738
0.00111534
0.00113823
0.00132168
0.00160059
0.00194004
0.00231897
0.0027222
0.00313503
0.00354458
0.00391764
0.00424408
0.00453402
0.00479987
0.00504685
0.00528298
0.00551396
0.00574306
0.00597132
0.0061981
0.00642141
0.00663872
0.00684814
0.00704729
0.0072341
0.00740541
0.00756573
0.00770171
0.0078989
0.00785145
0.00093923
0.000954461
0.000995956
0.00107075
0.00116292
0.00124701
0.00136809
0.00161623
0.00204499
0.00260322
0.00320013
0.00388241
0.00497172
0.00753557
0.0162623
0.0560412
0.0410426
0.00674311
0.00351469
0.00288321
0.00306065
0.00339054
0.00374278
0.00409772
0.00445105
0.00479549
0.00512435
0.00543492
0.00572676
0.00600101
0.00626021
0.00650768
0.00674707
0.00698284
0.00721804
0.00745472
0.0076917
0.00793566
0.00816859
0.0084516
0.00854096
0.00113966
0.00113424
0.0011495
0.00119658
0.00126681
0.00134343
0.0014153
0.00149232
0.00159497
0.00173694
0.00191711
0.00211638
0.002309
0.00249366
0.00271509
0.00309302
0.00383035
0.00762705
0.00461521
0.00225393
0.00290591
0.00363905
0.00435904
0.00360279
0.00457662
0.00464605
0.00475489
0.00496688
0.00523387
0.00552771
0.00583309
0.00614159
0.00644752
0.00674855
0.00704267
0.00733002
0.00761043
0.00789696
0.00817658
0.00850406
0.0087099
0.00136922
0.00135075
0.00133655
0.0013479
0.00138763
0.00145074
0.00152789
0.00161389
0.00171542
0.00184589
0.00201304
0.00220953
0.0024128
0.00260095
0.00276861
0.00291785
0.00305075
0.00319925
0.00341418
0.00370306
0.00413789
0.00607089
0.0596053
0.145675
0.00335094
0.00280163
0.0359719
0.0239878
0.00668197
0.00375829
0.0045357
0.00517863
0.00555353
0.00587787
0.00621189
0.00656362
0.0069262
0.00731264
0.00769116
0.00812139
0.00846375
0.00163666
0.00161021
0.00157626
0.00156229
0.00157645
0.00161453
0.00167015
0.00174023
0.00182866
0.00194395
0.00209296
0.00227459
0.00247594
0.00267873
0.00287232
0.00305397
0.00322128
0.00336724
0.00349966
0.00364455
0.00381514
0.00393471
0.00418801
0.00452431
0.00517744
0.00603983
0.0078352
0.0123749
0.0199329
0.010967
0.00529526
0.0241427
0.0625156
0.00443647
0.00911139
0.00372535
0.00464218
0.00548422
0.00618003
0.00685679
0.00750783
0.00194522
0.00191393
0.00186614
0.00182827
0.00181332
0.00182299
0.00185453
0.00190576
0.00197758
0.00207454
0.00220098
0.00235696
0.00253467
0.00272051
0.00290401
0.00308108
0.00325016
0.00340925
0.00355798
0.00369808
0.00382974
0.00395167
0.00406797
0.00420601
0.00432914
0.00448108
0.00462061
0.00473916
0.00498629
0.00533827
0.00596735
0.00701606
0.0101118
0.0694992
0.032999
0.011812
0.00498545
0.100145
0.00512706
0.00367903
0.00487852
0.00230455
0.00227025
0.00221365
0.00215818
0.00211906
0.00210223
0.00210829
0.00213577
0.0021848
0.00225748
0.00235636
0.00248228
0.00263144
0.00279502
0.00296417
0.00313335
0.00329946
0.00346009
0.00361381
0.00376146
0.00390403
0.00404134
0.00417489
0.00430433
0.00442055
0.00452069
0.00460075
0.00466111
0.00469144
0.00473353
0.0047825
0.00487761
0.00495522
0.00514867
0.00558894
0.006739
0.00927452
0.0310906
0.0271199
0.0195244
0.00450519
0.00272426
0.00268756
0.00262501
0.00255631
0.00249625
0.00245334
0.0024314
0.00243161
0.00245458
0.00250161
0.00257365
0.00267123
0.00279241
0.00293144
0.00308142
0.00323668
0.0033933
0.00354834
0.00369969
0.00384704
0.00399086
0.00412985
0.00426463
0.004396
0.00451901
0.00462857
0.00472305
0.00480279
0.00486656
0.00491547
0.004949
0.00496952
0.00497804
0.00496916
0.00496802
0.0050112
0.00513363
0.00553351
0.0064008
0.00822253
0.0205249
0.00321661
0.0031779
0.00311101
0.00303244
0.00295564
0.00288999
0.00284159
0.00281374
0.00280832
0.00282656
0.00286899
0.0029358
0.00302592
0.00313584
0.00326082
0.00339617
0.00353808
0.00368345
0.00382974
0.00397563
0.00411998
0.00425952
0.00439347
0.00452329
0.00464647
0.00475939
0.00486043
0.00494969
0.00502787
0.0050953
0.00515247
0.00519971
0.00523819
0.00526781
0.00528742
0.00529735
0.00530628
0.00530151
0.00534383
0.00540138
0.0058672
0.00379585
0.00375529
0.00368463
0.00359795
0.00350713
0.00342137
0.00334788
0.00329165
0.00325598
0.00324313
0.00325396
0.00328878
0.00334701
0.0034263
0.00352344
0.00363479
0.00375698
0.00388702
0.00402232
0.00416115
0.00430137
0.0044382
0.00456956
0.00469688
0.00481846
0.00493218
0.00503689
0.00513197
0.005218
0.00529571
0.00536593
0.00542968
0.00548827
0.00554332
0.00559632
0.00564789
0.00569934
0.00574714
0.00579018
0.00583403
0.00586259
0.0044794
0.00443701
0.00436266
0.00426867
0.00416556
0.00406208
0.0039658
0.0038827
0.0038172
0.00377257
0.00375042
0.00375151
0.00377584
0.00382204
0.00388787
0.00397074
0.00406799
0.00417709
0.00429567
0.00442196
0.0045534
0.00468421
0.00481144
0.00493602
0.00505662
0.00517177
0.0052801
0.00538129
0.00547563
0.00556372
0.00564632
0.0057244
0.00579916
0.00587222
0.00594532
0.00602021
0.00609893
0.00618376
0.00627505
0.0063831
0.00646622
0.00528848
0.00524392
0.00516542
0.0050642
0.00494946
0.00482948
0.00471192
0.00460322
0.00450851
0.00443194
0.00437604
0.00434226
0.0043313
0.00434278
0.00437536
0.00442713
0.00449606
0.00458015
0.00467738
0.00478611
0.00490374
0.00502417
0.00514396
0.00526353
0.00538136
0.00549616
0.00560698
0.00571349
0.00581567
0.00591404
0.00600921
0.00610209
0.00619364
0.00628533
0.00637862
0.00647502
0.00657646
0.00668494
0.00680277
0.00693768
0.00706346
0.00624758
0.0062002
0.00611686
0.00600835
0.00588227
0.00574639
0.00560852
0.00547543
0.00535267
0.00524501
0.00515577
0.00508706
0.00504023
0.00501577
0.00501336
0.00503188
0.00506971
0.00512538
0.0051973
0.00528407
0.00538343
0.00548947
0.00559855
0.00571059
0.0058238
0.00593679
0.00604888
0.00615983
0.00626919
0.00637732
0.00648475
0.00659211
0.00670019
0.0068102
0.0069234
0.00704091
0.00716427
0.00729498
0.00743501
0.00758952
0.00773629
0.00737737
0.00732711
0.00723869
0.00712291
0.00698547
0.00683369
0.00667576
0.00651879
0.00636866
0.00623055
0.00610839
0.00600485
0.0059219
0.00586079
0.00582202
0.00580546
0.0058103
0.00583521
0.00587905
0.00594084
0.00601893
0.00610789
0.00620398
0.0063067
0.006414
0.00652446
0.0066372
0.00675154
0.00686743
0.00698487
0.00710408
0.00722549
0.00734965
0.00747746
0.00760991
0.00774762
0.00789164
0.00804302
0.00820328
0.0083754
0.00854161
0.00865749
0.0086046
0.00851068
0.00838696
0.00823726
0.00806873
0.00789023
0.00770941
0.00753251
0.00736501
0.00721129
0.00707441
0.00695676
0.00686014
0.00678569
0.00673392
0.00670483
0.00669804
0.00671259
0.00674782
0.00680274
0.00687276
0.00695427
0.00704627
0.00714642
0.00725312
0.00736532
0.00748238
0.00760392
0.00772964
0.00785963
0.0079941
0.00813327
0.00827772
0.00842813
0.0085847
0.00874794
0.00891864
0.0090975
0.00928651
0.00947119
0.0100441
0.00998847
0.00988851
0.00975619
0.00959344
0.00940743
0.00920785
0.00900315
0.00880001
0.00860434
0.00842091
0.00825314
0.00810373
0.0079749
0.00786828
0.00778488
0.00772518
0.00768928
0.00767695
0.00768769
0.0077208
0.00777252
0.00783952
0.00792049
0.00801275
0.00811458
0.00822483
0.00834264
0.00846758
0.008599
0.00873664
0.00888066
0.00903089
0.00918772
0.00935149
0.00952219
0.00969973
0.00988497
0.0100779
0.01028
0.010479
0.0115177
0.0114596
0.0113546
0.0112147
0.0110399
0.0108372
0.0106176
0.0103903
0.0101626
0.00994083
0.00973016
0.0095343
0.00935617
0.00919829
0.00906257
0.0089504
0.00886262
0.00879978
0.00876205
0.0087496
0.0087622
0.00879661
0.00884977
0.00892
0.00900448
0.00910156
0.00920985
0.00932815
0.00945553
0.00959175
0.00973599
0.00988803
0.0100475
0.0102145
0.0103893
0.0105713
0.0107601
0.0109565
0.0111599
0.0113726
0.0115808
0.0130898
0.0130307
0.0129217
0.012775
0.0125884
0.0123693
0.0121297
0.0118798
0.0116277
0.0113803
0.0111432
0.0109204
0.0107151
0.0105301
0.0103675
0.0102291
0.0101159
0.0100287
0.0099682
0.00993473
0.00992854
0.00994727
0.00998787
0.0100484
0.010126
0.0102187
0.0103252
0.010444
0.010574
0.0107144
0.0108647
0.0110238
0.0111914
0.0113675
0.0115518
0.0117438
0.0119423
0.0121487
0.0123615
0.0125851
0.0127985
0.0147703
0.0147111
0.0145989
0.0144457
0.0142474
0.0140116
0.0137518
0.0134793
0.0132031
0.0129305
0.0126677
0.0124191
0.0121882
0.011978
0.0117908
0.0116284
0.0114922
0.0113833
0.0113025
0.0112504
0.0112275
0.0112317
0.0112606
0.0113122
0.0113834
0.0114723
0.0115772
0.0116963
0.0118279
0.0119716
0.0121271
0.0122924
0.0124671
0.0126509
0.0128437
0.0130445
0.0132517
0.0134671
0.0136881
0.0139222
0.0141359
0.01657
0.0165118
0.0163971
0.0162377
0.0160274
0.0157746
0.0154941
0.0151986
0.0148978
0.0145999
0.0143115
0.0140376
0.0137817
0.0135473
0.0133367
0.013152
0.0129948
0.0128662
0.0127672
0.0126987
0.0126613
0.0126533
0.0126725
0.0127169
0.0127831
0.0128687
0.012972
0.0130917
0.0132247
0.0133716
0.0135318
0.0137029
0.0138839
0.0140745
0.0142745
0.0144826
0.0146967
0.014919
0.0151455
0.0153884
0.015595
0.0185006
0.0184441
0.0183274
0.0181616
0.0179389
0.0176684
0.0173665
0.0170472
0.0167213
0.0163977
0.0160836
0.0157846
0.0155044
0.0152466
0.015014
0.0148086
0.014632
0.0144857
0.0143706
0.0142879
0.0142382
0.0142202
0.0142315
0.0142695
0.0143309
0.0144138
0.0145162
0.0146365
0.0147729
0.0149221
0.0150847
0.0152624
0.0154486
0.0156445
0.0158501
0.016064
0.0162834
0.016511
0.0167419
0.0169954
0.0171906
0.020574
0.02052
0.0204019
0.0202295
0.0199936
0.0197044
0.01938
0.0190361
0.0186842
0.0183342
0.0179941
0.0176697
0.0173653
0.0170846
0.0168306
0.0166055
0.0164109
0.0162484
0.0161191
0.0160242
0.0159643
0.0159378
0.0159422
0.015975
0.0160332
0.0161146
0.0162173
0.016339
0.0164783
0.0166299
0.0167966
0.0169782
0.0171699
0.0173718
0.0175834
0.0178036
0.0180295
0.0182645
0.0185018
0.0187708
0.0189547
0.0228037
0.0227529
0.0226335
0.0224538
0.0222037
0.0218944
0.0215463
0.0211763
0.0207974
0.0204201
0.0200533
0.0197031
0.0193744
0.0190711
0.0187962
0.0185521
0.0183406
0.0181632
0.0180212
0.0179157
0.0178472
0.0178138
0.0178133
0.0178431
0.0178998
0.017981
0.0180845
0.0182077
0.0183485
0.018506
0.0186749
0.0188579
0.0190596
0.0192676
0.0194855
0.0197132
0.0199469
0.0201904
0.0204346
0.0207191
0.0208905
0.0252044
0.0251571
0.0250363
0.0248483
0.0245825
0.0242515
0.0238779
0.0234802
0.0230726
0.0226668
0.0222723
0.0218958
0.0215425
0.0212164
0.0209209
0.0206584
0.0204308
0.0202396
0.0200859
0.0199711
0.0198954
0.019857
0.019853
0.0198808
0.0199365
0.0200179
0.0201223
0.0202478
0.020392
0.0205553
0.0207281
0.0209169
0.021125
0.0213389
0.0215634
0.0217978
0.0220377
0.022287
0.0225349
0.0228285
0.0229803
0.027792
0.0277486
0.0276256
0.0274281
0.0271445
0.0267895
0.026388
0.0259605
0.0255225
0.0250866
0.0246632
0.0242594
0.0238809
0.0235318
0.0232158
0.0229352
0.0226921
0.0224878
0.0223237
0.0222008
0.0221195
0.0220772
0.0220707
0.0220969
0.0221523
0.0222344
0.022341
0.0224701
0.0226186
0.0227868
0.0229635
0.0231574
0.0233682
0.0235887
0.0238187
0.0240573
0.0243006
0.0245532
0.0248029
0.0251056
0.0252329
0.0305847
0.0305447
0.0304186
0.0302093
0.0299052
0.0295233
0.029091
0.0286311
0.0281602
0.0276924
0.0272384
0.0268062
0.0264016
0.0260291
0.0256924
0.0253938
0.0251354
0.0249185
0.0247444
0.0246142
0.0245279
0.0244825
0.0244744
0.0245005
0.0245569
0.0246413
0.024751
0.0248833
0.0250357
0.0252059
0.0253931
0.0255871
0.0257941
0.0260282
0.0262627
0.0265051
0.0267543
0.0270143
0.0272698
0.0275912
0.0276988
0.0336023
0.0335648
0.0334339
0.0332096
0.0328815
0.032469
0.0320024
0.0315067
0.0310002
0.0304979
0.0300115
0.0295493
0.0291175
0.0287208
0.0283629
0.0280463
0.0277727
0.0275437
0.0273601
0.0272233
0.0271328
0.0270852
0.0270764
0.0271029
0.0271609
0.0272474
0.0273598
0.0274953
0.0276517
0.0278257
0.0280197
0.0282168
0.0284307
0.0286702
0.0289102
0.0291603
0.0294182
0.0296877
0.0299505
0.0302909
0.0303825
0.0368666
0.0368304
0.0366921
0.0364487
0.036092
0.0356442
0.0351389
0.0346033
0.0340578
0.0335181
0.0329968
0.0325028
0.0320423
0.0316205
0.0312408
0.0309057
0.030617
0.0303761
0.0301836
0.0300407
0.0299468
0.0298977
0.0298881
0.029915
0.0299743
0.0300632
0.0301791
0.0303188
0.0304801
0.0306594
0.0308594
0.0310611
0.0312815
0.0315214
0.0317706
0.0320287
0.0322918
0.0325664
0.0328323
0.0331813
0.033253
0.0404024
0.0403657
0.0402161
0.0399481
0.0395569
0.0390679
0.0385183
0.037938
0.0373491
0.0367686
0.0362097
0.0356815
0.0351908
0.0347424
0.03434
0.033986
0.0336818
0.0334286
0.033227
0.0330779
0.0329804
0.0329299
0.0329204
0.0329485
0.0330102
0.0331023
0.0332219
0.0333657
0.0335309
0.0337148
0.0339155
0.0341321
0.0343504
0.0345801
0.0348473
0.0351073
0.0353704
0.0356472
0.0359147
0.0362691
0.0363159
0.0442377
0.0441979
0.0440314
0.0437318
0.0432983
0.0427606
0.04216
0.0415292
0.0408921
0.0402667
0.0396667
0.0391017
0.0385786
0.0381021
0.0376759
0.0373019
0.0369817
0.036716
0.0365051
0.0363496
0.0362488
0.0361975
0.0361882
0.0362179
0.0362819
0.0363768
0.0364995
0.0366469
0.0368158
0.0370036
0.0372072
0.0374308
0.0376515
0.0378893
0.0381582
0.03842
0.0386883
0.0389716
0.0392446
0.0396141
0.0396448
0.048404
0.0483568
0.0481667
0.0478259
0.04734
0.0467452
0.0460859
0.0453979
0.0447067
0.0440315
0.0433865
0.0427815
0.0422234
0.0417168
0.0412651
0.0408701
0.0405329
0.0402541
0.0400339
0.039872
0.0397678
0.0397145
0.0397043
0.0397335
0.0397981
0.0398947
0.0400198
0.0401696
0.040341
0.0405319
0.0407388
0.0409661
0.0411898
0.0414324
0.0417047
0.0419719
0.0422477
0.0425395
0.0428197
0.0432057
0.0432305
0.0529367
0.0528769
0.0526535
0.0522593
0.0517102
0.0510476
0.0503204
0.0495672
0.0488152
0.0480845
0.0473897
0.0467409
0.0461446
0.0456053
0.045126
0.0447082
0.0443526
0.0440595
0.0438285
0.0436594
0.0435511
0.0434969
0.0434869
0.0435178
0.0435854
0.0436858
0.043815
0.0439698
0.0441464
0.0443423
0.0445538
0.0447868
0.0450155
0.0452671
0.0455333
0.045812
0.0460973
0.0463943
0.0466792
0.0470705
0.0471078
0.0578758
0.0577962
0.0575271
0.0570657
0.0564391
0.0556966
0.054891
0.0540635
0.0532431
0.0524505
0.0517005
0.051003
0.0503644
0.0497891
0.0492793
0.0488363
0.0484603
0.0481508
0.0479072
0.0477282
0.0476133
0.0475545
0.0475405
0.0475683
0.0476334
0.0477317
0.0478596
0.0480132
0.0481886
0.0483847
0.0485985
0.0488294
0.0490711
0.0493211
0.0495755
0.0498706
0.0501523
0.0504444
0.0507309
0.051122
0.0511685
0.0632661
0.0631573
0.0628273
0.062281
0.0615616
0.0607258
0.05983
0.0589183
0.0580208
0.0571587
0.056347
0.0555952
0.0549094
0.0542935
0.0537495
0.0532781
0.052879
0.0525518
0.0522948
0.0521073
0.0519873
0.0519275
0.0519145
0.0519455
0.0520158
0.0521211
0.0522564
0.052417
0.0526017
0.0528076
0.0530318
0.0532707
0.0535247
0.0537846
0.0540595
0.0543503
0.0546326
0.0549321
0.0552319
0.0556245
0.0557345
0.0691572
0.0690077
0.068597
0.0679454
0.0671169
0.0661736
0.0651768
0.0641707
0.0631867
0.062246
0.0613642
0.0605508
0.0598117
0.0591496
0.0585661
0.0580608
0.0576327
0.0572799
0.0570004
0.0567918
0.0566531
0.0565774
0.0565485
0.0565642
0.0566197
0.0567093
0.0568286
0.0569774
0.0571525
0.0573505
0.057569
0.0578044
0.0580545
0.0583235
0.0586073
0.0588948
0.0591791
0.0594822
0.0597907
0.060182
0.0603311
0.0756038
0.0753997
0.0748849
0.0741064
0.0731496
0.0720861
0.0709774
0.0698682
0.068789
0.0677609
0.0667995
0.0659147
0.0651128
0.0643968
0.0637677
0.0632248
0.0627668
0.0623921
0.0620986
0.0618842
0.0617489
0.0616849
0.0616735
0.0617114
0.0617912
0.0619056
0.0620534
0.0622296
0.0624306
0.0626548
0.062896
0.0631525
0.063421
0.0637222
0.0640324
0.0643243
0.0646199
0.0649353
0.0652696
0.0656377
0.0660033
0.082665
0.0823913
0.0817505
0.0808254
0.0797262
0.0785262
0.07729
0.0760646
0.0748808
0.0737589
0.0727123
0.0717491
0.0708746
0.0700922
0.0694028
0.068805
0.0682953
0.0678691
0.0675212
0.0672467
0.0670456
0.0669112
0.0668263
0.0667889
0.0667948
0.0668448
0.0669345
0.0670614
0.0672224
0.0674117
0.0676256
0.0678665
0.0681232
0.0684333
0.068759
0.0690484
0.0693584
0.0696941
0.0700572
0.0704371
0.0708511
0.090396
0.090035
0.0892493
0.0881765
0.0869384
0.0856025
0.0842274
0.0828624
0.081546
0.080306
0.0791585
0.078111
0.0771642
0.0763174
0.0755703
0.0749249
0.0743835
0.0739482
0.0736189
0.0733904
0.0732666
0.0732358
0.0732674
0.0733522
0.0734855
0.0736561
0.0738586
0.0740867
0.074331
0.0745869
0.0748583
0.0751453
0.0754395
0.0757707
0.07613
0.0764238
0.0767481
0.0770844
0.0774776
0.0777357
0.0787844
0.0988531
0.0983759
0.0974174
0.0961969
0.0948522
0.0934271
0.0919558
0.0904749
0.0890166
0.0876159
0.0863045
0.0851081
0.0840385
0.0830956
0.0822664
0.0815331
0.0808773
0.0802856
0.0797522
0.079274
0.0788599
0.0785091
0.078211
0.0779838
0.0778302
0.0777494
0.0777383
0.0777868
0.0778912
0.0780513
0.0782638
0.0785156
0.0788152
0.0791232
0.0795618
0.0800015
0.0803845
0.0808146
0.0813136
0.0817484
0.0826115
0.108126
0.107519
0.106354
0.104954
0.103481
0.101975
0.100467
0.0989757
0.0975028
0.0960499
0.0946259
0.093253
0.0919664
0.0908091
0.0898219
0.0890347
0.0884592
0.0880905
0.0879086
0.0878837
0.0880017
0.0882295
0.0885302
0.0888741
0.0892451
0.0896306
0.0900116
0.090384
0.0907485
0.0911032
0.0914422
0.0917628
0.0920816
0.0923721
0.0927871
0.0931852
0.093433
0.0937037
0.0941643
0.0940809
0.0968235
0.11829
0.117656
0.116402
0.114887
0.113245
0.111512
0.109765
0.108086
0.10653
0.105115
0.103827
0.102618
0.101432
0.100211
0.0989223
0.0975571
0.0961374
0.0947044
0.0933096
0.0920024
0.0908141
0.0897765
0.0888899
0.0881738
0.0876263
0.0872342
0.0869881
0.0868764
0.0868875
0.0870076
0.0872233
0.0875297
0.0879277
0.0883916
0.0890251
0.0897273
0.0903734
0.0911168
0.0919918
0.0927833
0.0942632
0.129205
0.128701
0.127711
0.12661
0.125359
0.123809
0.121914
0.119727
0.117378
0.115051
0.112937
0.111196
0.109933
0.109189
0.108947
0.109141
0.109673
0.110434
0.11132
0.112228
0.113184
0.114163
0.115176
0.116176
0.117146
0.118094
0.118989
0.119806
0.120522
0.121145
0.121657
0.12207
0.122424
0.122652
0.123012
0.123273
0.123253
0.123174
0.123527
0.122051
0.12906
0.140417
0.139703
0.138744
0.138198
0.138061
0.138072
0.138006
0.13764
0.136733
0.135056
0.132459
0.128945
0.124702
0.120046
0.115331
0.110849
0.1068
0.103287
0.100343
0.0979638
0.0960549
0.0945431
0.0933996
0.0925737
0.0920057
0.0916416
0.0914511
0.0913967
0.0914789
0.0916708
0.0919605
0.0923642
0.0928825
0.0934816
0.0941789
0.0949997
0.0958629
0.0967807
0.0978317
0.0985618
0.101274
0.151534
0.15014
0.148182
0.146598
0.145766
0.14579
0.146717
0.148493
0.150893
0.153509
0.155768
0.157043
0.156893
0.155277
0.152567
0.149338
0.146129
0.143307
0.141066
0.139428
0.13846
0.138094
0.138426
0.139183
0.140159
0.14131
0.14262
0.143733
0.144277
0.144491
0.144754
0.145134
0.145433
0.145749
0.146172
0.146543
0.146985
0.147736
0.14839
0.15051
0.148455
0.163126
0.16344
0.160746
0.152953
0.141282
0.129012
0.118291
0.109673
0.102986
0.0978865
0.0940569
0.0912437
0.0892507
0.0879292
0.0871624
0.0868558
0.0869295
0.0873165
0.0879568
0.0888081
0.0898186
0.0907392
0.0917302
0.0927374
0.0937572
0.0948095
0.0958756
0.0971021
0.0985284
0.100073
0.101694
0.103367
0.105118
0.107038
0.109096
0.111302
0.113803
0.116688
0.120096
0.123219
0.126255
0.00300401
0.00415626
0.00513844
0.00593475
0.00658974
0.00714919
0.00763925
0.00808017
0.00848828
0.00887176
0.009217
0.00952672
0.00986726
0.0103135
0.0108605
0.0109725
0.00892599
0.0104192
0.0333242
0.0421011
0.0449622
0.0467423
0.0489623
0.052723
0.0606516
0.0926677
0.0542403
0.0145453
0.0140259
0.133268
2.1844
0.0296691
0.0215799
0.021876
0.0227846
0.0240893
0.0249114
0.0268917
0.0282243
0.0285648
0.028467
0.0306675
0.0314267
0.0328006
0.0331687
0.0311839
0.0316518
0.0348271
0.0399996
0.0447037
0.0473113
0.0468912
0.0485217
0.0512404
0.0522509
0.0509733
0.0514505
0.049624
0.0518251
0.0532623
0.0544464
0.0550114
0.0560809
0.0571042
0.0585482
0.0609117
0.0644864
0.0693329
0.075644
0.0841368
0.0957077
0.116618
0.134032
0.178425
0.00688309
0.00616005
0.00665417
0.00728267
0.0078717
0.00838765
0.00883348
0.00922797
0.0095903
0.00992985
0.0102378
0.0105105
0.0108043
0.0111896
0.0116938
0.0117353
0.0103122
0.0116788
0.0233197
0.0353215
0.0417376
0.0445739
0.0462146
0.047894
0.050398
0.0548836
0.0657842
0.109859
0.0291289
0.0266698
0.0609292
0.196032
0.0491372
0.0229857
0.0209858
0.0230578
0.0255404
0.0276845
0.0282603
0.0284982
0.0287893
0.0313614
0.0326024
0.0331466
0.0334913
0.0308999
0.0326978
0.0353809
0.0393165
0.0428401
0.0463676
0.0480597
0.049725
0.0497645
0.0483383
0.0463161
0.0478326
0.0477089
0.0505748
0.0523962
0.0536822
0.0543453
0.0557234
0.0570567
0.0587395
0.0614195
0.0653838
0.0707686
0.0777088
0.0871245
0.0996464
0.120914
0.136342
0.169803
0.00919417
0.0142888
0.0126941
0.0114797
0.0111113
0.0110655
0.01114
0.0112613
0.0114092
0.0115774
0.0117517
0.0119166
0.012109
0.0123979
0.0128303
0.0129364
0.0120301
0.0121615
0.0181556
0.0280656
0.0363778
0.0412889
0.0438617
0.0454298
0.0468413
0.0486337
0.0514285
0.0562146
0.0688883
0.0674679
0.015496
0.0163441
0.045034
0.0935262
0.0353159
0.0237832
0.0244139
0.0270464
0.0284839
0.0291275
0.0296593
0.0316506
0.0330406
0.0331111
0.0337381
0.0351212
0.0364674
0.0381603
0.0406408
0.0427454
0.0457352
0.0477426
0.0489713
0.0490775
0.0478071
0.0464376
0.0463876
0.0477061
0.0495291
0.0514519
0.0530318
0.0539571
0.0555317
0.0571105
0.059044
0.0619166
0.0660802
0.0718572
0.0793446
0.0895664
0.102667
0.123579
0.136358
0.162667
0.00846025
0.0100369
0.012566
0.0168021
0.0232096
0.0233301
0.0195629
0.0172766
0.0159491
0.0151522
0.014674
0.0143788
0.014217
0.0142234
0.0144563
0.0145754
0.013873
0.0132976
0.0160605
0.0228796
0.0306935
0.0369158
0.0409338
0.0433423
0.0449156
0.0462272
0.0476974
0.0496964
0.052738
0.0585098
0.0836175
0.0423054
0.015389
0.0847347
0.102974
0.251648
0.0346284
0.0267127
0.0264576
0.0284068
0.0304111
0.0321505
0.0329456
0.0327842
0.0335777
0.0371468
0.0401758
0.0426619
0.0444156
0.0448516
0.0461383
0.0471662
0.0478722
0.0486527
0.0486465
0.0486658
0.0478535
0.04778
0.0488874
0.0506043
0.0524912
0.053805
0.0555755
0.0573746
0.0594964
0.0624538
0.0666178
0.0724762
0.0801771
0.0907688
0.103749
0.123387
0.134247
0.15925
0.00878597
0.00949162
0.0103872
0.0114609
0.0128865
0.0148753
0.0178552
0.0229429
0.0329985
0.0355643
0.0264403
0.0219804
0.0195885
0.0182242
0.0175977
0.0173118
0.0164471
0.0153369
0.0161188
0.0201585
0.0262468
0.0324091
0.0374021
0.0409313
0.0432879
0.0449217
0.0462383
0.0475662
0.0491711
0.051269
0.0544957
0.0609417
0.095384
0.0313638
0.0362336
0.095088
0.215219
0.245224
0.0402444
0.0290416
0.0286158
0.0304628
0.0322367
0.0328924
0.0339216
0.0373578
0.0417782
0.0457227
0.0473512
0.0470442
0.0475221
0.0478031
0.0474433
0.0474122
0.04738
0.0481956
0.048548
0.0484168
0.0488557
0.0500565
0.0520008
0.0537448
0.0558274
0.0579112
0.0602055
0.0631839
0.0672224
0.0728901
0.0804182
0.0908102
0.103018
0.120593
0.130155
0.157521
0.00885253
0.00928644
0.00980735
0.0103639
0.0110218
0.0118147
0.0127727
0.0139789
0.0155687
0.0178053
0.0212715
0.0275303
0.0425569
0.043572
0.0302245
0.0253953
0.0224508
0.0198236
0.0185425
0.0200341
0.0239999
0.0290919
0.0341003
0.0383128
0.0415115
0.0438131
0.0454798
0.0467979
0.0480249
0.0493265
0.0508631
0.0527855
0.0555997
0.061388
0.0981295
0.0280849
0.0279785
0.103887
0.204605
3.10481
0.0558987
0.0331852
0.0300201
0.0307404
0.033325
0.0375524
0.0425258
0.0469155
0.0485286
0.0478833
0.0477291
0.0474216
0.0465742
0.0461639
0.0459735
0.0469512
0.0480389
0.0486745
0.0490549
0.049762
0.0514287
0.0534114
0.0559299
0.0585107
0.0611243
0.0641597
0.0680219
0.0733008
0.0803469
0.090077
0.101034
0.116111
0.124382
0.154079
0.00853161
0.00885321
0.00922711
0.00960451
0.0100537
0.0105868
0.01119
0.0118706
0.0126489
0.0135554
0.0146507
0.0160409
0.0178991
0.0206025
0.0251213
0.034111
0.0597817
0.0447357
0.0293691
0.0250876
0.0256077
0.0285763
0.0325263
0.0365433
0.0400917
0.0429432
0.0451029
0.0467133
0.0479732
0.0490575
0.050112
0.0512253
0.0524607
0.0539203
0.0557787
0.0588572
0.0726946
0.033382
0.326653
0.0648728
0.316733
0.159935
0.0570986
0.0375016
0.0329095
0.0351791
0.0400736
0.0453602
0.0482453
0.0481336
0.0473678
0.0464217
0.0454779
0.0452781
0.0453121
0.0462975
0.0474377
0.048529
0.0492217
0.0496414
0.0507864
0.0525959
0.0553719
0.058562
0.0617886
0.065137
0.0689382
0.073751
0.0801072
0.0888951
0.0984291
0.11109
0.118059
0.148152
0.00743696
0.00766683
0.00793778
0.00818195
0.00848646
0.00888462
0.00937699
0.00996679
0.0106553
0.0114306
0.0122817
0.0132111
0.0142319
0.015373
0.0167358
0.0185227
0.0209005
0.0241956
0.0301634
0.0484387
0.0538323
0.0394937
0.0377468
0.0391028
0.0414009
0.0438102
0.0459466
0.0476707
0.048999
0.0500249
0.0508756
0.0516516
0.0524222
0.0532461
0.0541025
0.0550232
0.0561324
0.0578476
0.0679643
0.0617485
0.0380535
0.0206728
0.358648
0.204227
0.0760805
0.0487931
0.0403474
0.0410844
0.0437516
0.0459349
0.0468624
0.0461347
0.0448094
0.0443674
0.0445985
0.0458359
0.0472045
0.0485753
0.0496126
0.0499343
0.0504952
0.0517061
0.0541978
0.0576135
0.0614378
0.0653899
0.0694753
0.0740189
0.0796834
0.0874235
0.0955916
0.106193
0.112002
0.140823
0.00456769
0.00459174
0.00465892
0.0046944
0.0048223
0.00507167
0.00546406
0.00603613
0.00679366
0.00769651
0.00870945
0.00981167
0.0109555
0.0121245
0.0133146
0.0145827
0.0159923
0.0175182
0.0191648
0.0212991
0.0250638
0.0330197
0.0526322
0.0935088
0.064883
0.0563159
0.0537864
0.0531669
0.0532132
0.0534564
0.0537426
0.0540372
0.0543608
0.0547501
0.055195
0.0557115
0.0562646
0.0568203
0.0575274
0.0588123
0.0641462
0.103131
0.0496137
0.028195
0.0498951
0.30063
0.930741
0.0907759
0.0534405
0.0451434
0.0435152
0.043257
0.0433185
0.0437125
0.0442072
0.0454343
0.0469272
0.0485407
0.05003
0.0506585
0.0509681
0.0515097
0.053257
0.0561954
0.0599763
0.064262
0.0687719
0.073417
0.0787134
0.0855856
0.0926031
0.101503
0.10629
0.132883
0.0046094
0.00548527
0.00671011
0.00750063
0.0583651
0.0237865
0.0581831
0.00767981
0.00817471
0.00943455
0.00773988
0.00648042
0.0055511
0.00697914
0.00860252
0.0101262
0.0116847
0.0132743
0.0148201
0.0162658
0.0177951
0.0199216
0.0233859
0.0290604
0.0383805
0.0551059
0.0960651
0.117598
0.0811333
0.0696382
0.0645038
0.0617916
0.0602482
0.0593744
0.0589153
0.0587515
0.0587861
0.0589397
0.0591617
0.059436
0.0597941
0.0601811
0.0620952
0.0762039
0.0345823
0.0408721
0.0235033
0.537788
0.347732
0.114061
0.0672417
0.0476664
0.0420731
0.0405562
0.0411158
0.0433472
0.0459245
0.0483053
0.0503805
0.0515548
0.0520286
0.0522073
0.0532303
0.0553613
0.05844
0.0622812
0.0666394
0.0712679
0.0764635
0.0828852
0.0892464
0.0969047
0.100803
0.124541
0.0270278
0.0269951
0.0260362
0.0254512
0.0254393
0.0259625
0.0274184
0.0321785
0.0452057
0.121428
2.37067
0.0238544
0.0255456
0.012481
0.0114405
0.020264
0.00761241
0.00616865
0.0085984
0.0108781
0.0126531
0.0141882
0.0159579
0.0184468
0.0220427
0.0270476
0.0338102
0.0431385
0.0572712
0.0838603
0.167966
0.119632
0.0882836
0.0765579
0.0706654
0.0673401
0.0653669
0.0641829
0.0634869
0.063094
0.0628817
0.0627303
0.0625236
0.0624474
0.0621196
0.0647465
0.0899033
0.0666507
0.0358793
0.0307519
0.379655
0.238013
0.0891052
0.0562479
0.045787
0.042176
0.0420674
0.0442291
0.0475961
0.0507788
0.0528815
0.0536472
0.0543008
0.055639
0.0578196
0.0607756
0.0642889
0.0681678
0.0727882
0.078726
0.0848892
0.0919924
0.0954634
0.116191
0.00602409
0.00625143
0.00653954
0.00685206
0.00718611
0.00758203
0.00804197
0.00854905
0.00911273
0.00989949
0.0109767
0.0120029
0.0139749
0.0184986
0.0337959
0.933889
0.0598908
0.0392718
0.0141061
0.0135666
0.0142593
0.00733356
0.00831849
0.0100703
0.0124612
0.0156706
0.019796
0.0248046
0.0308059
0.0380624
0.0471893
0.0598032
0.080468
0.129507
0.205502
0.113662
0.0909578
0.0807886
0.0752449
0.0719351
0.0698706
0.0685322
0.0675948
0.066899
0.0662485
0.0655002
0.0646459
0.0643858
0.0695366
0.102724
0.054341
0.0304747
0.572196
0.340302
1.29935
0.121281
0.0690856
0.0502125
0.0459109
0.0462809
0.048521
0.0512811
0.0539293
0.0561734
0.0582311
0.0605279
0.0630985
0.0657921
0.0690997
0.0737623
0.0792575
0.08599
0.0897386
0.108089
0.0059743
0.0062252
0.00652161
0.00684695
0.00720168
0.00759971
0.00804676
0.00852529
0.00901502
0.00950626
0.00999436
0.0104755
0.0109888