/*--------------------------------*- C++ -*----------------------------------*\
| =========                 |                                                 |
| \\      /  F ield         | OpenFOAM: The Open Source CFD Toolbox           |
|  \\    /   O peration     | Version:  2312                                  |
|   \\  /    A nd           | Website:  www.openfoam.com                      |
|    \\/     M anipulation  |                                                 |
\*---------------------------------------------------------------------------*/
FoamFile
{
    version     2.0;
    format      ascii;
    arch        "LSB;label=32;scalar=64";
    class       volScalarField;
    location    "100";
    object      turbulenceProperties:I;
}
// * * * * * * * * * * * * * * * * * * * * * * * * * * * * * * * * * * * * * //

dimensions      [0 0 0 0 0 0 0];

internalField   nonuniform List<scalar> 
11040
(
0.0268417
0.0340264
0.0486295
0.0793491
0.143543
0.359782
0.682007
0.682331
0.505926
0.443554
0.404752
0.371044
0.345944
0.328865
0.317032
0.308447
0.302056
0.297253
0.29363
0.290741
0.289307
0.289001
0.288972
0.288762
0.288689
0.288959
0.28957
0.290528
0.29187
0.293681
0.296064
0.299171
0.303184
0.308398
0.31525
0.324297
0.3366
0.352648
0.373211
0.362238
0.87285
0.0112366
0.010037
0.0111653
0.0165401
0.0274491
0.0493576
0.0821476
0.11727
0.147125
0.172499
0.189824
0.197116
0.196043
0.189769
0.180812
0.170874
0.161178
0.152458
0.14504
0.138936
0.134779
0.132591
0.131473
0.130422
0.12962
0.129306
0.129519
0.130294
0.131704
0.133871
0.136932
0.141081
0.14656
0.153747
0.16321
0.17566
0.192453
0.2145
0.248676
0.278691
0.517445
0.00924837
0.00647237
0.00546959
0.00461342
0.00283276
0.00604138
0.0127567
0.0207954
0.0284089
0.0354366
0.0429819
0.0518298
0.0620967
0.073424
0.0851675
0.0964788
0.106486
0.114468
0.120059
0.123339
0.124712
0.125116
0.125214
0.124938
0.124727
0.124838
0.125309
0.12617
0.127473
0.129286
0.131697
0.134834
0.138882
0.144111
0.150943
0.159906
0.172008
0.187877
0.21235
0.234566
0.326484
0.0082761
0.00662323
0.0054893
0.00473074
0.00416432
0.00342525
0.00252095
0.00186114
0.00121606
0.00132926
0.00234788
0.00353607
0.00530954
0.00805981
0.0120471
0.017561
0.024729
0.0334126
0.0433071
0.0539683
0.0649865
0.0753349
0.0841303
0.0911958
0.096795
0.101335
0.105118
0.10842
0.111489
0.114555
0.117824
0.121499
0.125786
0.130932
0.137253
0.145088
0.155063
0.1675
0.18545
0.202486
0.253851
0.00716605
0.0060469
0.0051405
0.00440666
0.00385532
0.00348065
0.00311311
0.00264779
0.00217039
0.00179674
0.00153706
0.00133286
0.00111655
0.00083467
0.000491399
0.000210175
0.000247471
0.000775256
0.00178324
0.00510991
0.0102101
0.0168209
0.0241858
0.0318584
0.0396531
0.0474473
0.0551158
0.062579
0.0698083
0.0768217
0.083677
0.090474
0.0973493
0.104508
0.1122
0.120677
0.130355
0.141474
0.155835
0.170072
0.202303
0.00605664
0.00538665
0.00477377
0.00421107
0.00374245
0.00338958
0.00313601
0.00293017
0.00272791
0.00251609
0.00230539
0.00211828
0.00197026
0.00185176
0.00173104
0.0015635
0.00133325
0.000822462
0.00118121
0.00225726
0.00173589
0.00142018
0.00120358
0.00216331
0.00350315
0.006194
0.00980908
0.0141893
0.0192925
0.0250962
0.0315891
0.0387811
0.0466951
0.0554099
0.0650113
0.0755601
0.0871674
0.0999443
0.114672
0.129419
0.154593
0.00510417
0.00470258
0.00434493
0.00397875
0.00362381
0.00330367
0.0030331
0.00281006
0.00261461
0.00242567
0.00223674
0.00205826
0.00190701
0.00179043
0.0017024
0.00163517
0.00158342
0.00152828
0.00145103
0.00136249
0.00125484
0.000944718
0.000202041
0.000112424
0.00163183
0.00244668
0.000288367
0.000374976
0.000906564
0.00196779
0.00325248
0.00528328
0.00838488
0.0126718
0.0183072
0.0254728
0.034338
0.0451461
0.0583109
0.0725475
0.0947694
0.00428963
0.00404506
0.00384405
0.00362059
0.00337428
0.00313192
0.00291129
0.00271615
0.00253828
0.00236672
0.00219615
0.00203035
0.00188022
0.00175461
0.00165353
0.00157266
0.00150889
0.00146222
0.00142633
0.0013888
0.00134567
0.00132587
0.00126424
0.00119033
0.00106834
0.000952781
0.000791214
0.000579339
0.000423986
0.000647389
0.00114069
0.000385146
0.000204713
0.00318512
0.000771618
0.00266697
0.00524112
0.00918721
0.0153041
0.022901
0.0373029
0.00360768
0.00345507
0.00334531
0.00322634
0.00308156
0.0029199
0.00275516
0.00259556
0.00244261
0.00229322
0.00214538
0.00200105
0.00186688
0.00174999
0.00165236
0.00157172
0.0015053
0.00145134
0.00140796
0.00137308
0.00134583
0.00132518
0.00130836
0.00128529
0.00126809
0.00124234
0.00122186
0.00120856
0.00116529
0.00110817
0.00101914
0.000906543
0.000700446
0.000191901
0.000319696
0.000650872
0.00132192
0.000155854
0.00131798
0.0024181
0.00726074
0.00303546
0.00293802
0.00287782
0.00281975
0.00274447
0.00264947
0.00254047
0.00242512
0.00230761
0.00218924
0.00207034
0.00195215
0.00183842
0.00173441
0.00164321
0.00156495
0.00149851
0.00144278
0.00139654
0.00135815
0.00132639
0.00129988
0.00127688
0.00125702
0.00124234
0.00123294
0.00122956
0.00123186
0.00124277
0.00124996
0.00125494
0.00124696
0.00124481
0.00121516
0.00114089
0.000986298
0.000782468
0.000342491
0.00037862
0.000470995
0.00157815
0.00255613
0.00249295
0.00245972
0.00243467
0.0024027
0.002357
0.00229676
0.00222459
0.00214378
0.00205676
0.00196578
0.00187264
0.00178002
0.0016919
0.00161138
0.00153984
0.0014774
0.00142367
0.00137807
0.00133954
0.00130708
0.00127974
0.00125608
0.00123541
0.00121858
0.00120639
0.00119884
0.00119553
0.00119657
0.00120157
0.00121061
0.00122312
0.00123891
0.00125967
0.00127842
0.00128442
0.00126896
0.00119262
0.00105938
0.000873962
0.000461682
0.00215404
0.00211244
0.00209402
0.00208553
0.0020767
0.00206101
0.00203491
0.00199766
0.00195011
0.00189397
0.00183136
0.00176417
0.00169452
0.00162531
0.00155914
0.00149778
0.00144211
0.00139247
0.00134888
0.00131097
0.00127844
0.00125103
0.00122774
0.00120763
0.00119084
0.0011778
0.0011685
0.00116262
0.00115974
0.00115966
0.00116214
0.00116703
0.00117403
0.00118316
0.00119471
0.00120854
0.00122238
0.00123952
0.00124394
0.00124401
0.00115402
0.00181637
0.00178865
0.00177858
0.00177807
0.00178055
0.00178117
0.00177626
0.0017636
0.00174229
0.00171243
0.00167515
0.00163173
0.00158376
0.00153345
0.00148288
0.0014338
0.00138741
0.00134449
0.00130548
0.00127047
0.00123965
0.00121338
0.00119113
0.00117196
0.00115579
0.0011427
0.00113256
0.00112524
0.00112038
0.00111765
0.00111673
0.00111732
0.00111905
0.00112154
0.00112442
0.00112744
0.00113023
0.0011335
0.00113741
0.00114067
0.00114632
0.00153227
0.00151362
0.00150834
0.00151141
0.00151869
0.00152686
0.00153302
0.00153491
0.00153098
0.00152038
0.00150319
0.0014799
0.00145136
0.00141896
0.00138425
0.00134863
0.00131326
0.00127905
0.00124666
0.00121645
0.00118895
0.00116496
0.00114431
0.00112628
0.00111075
0.00109763
0.0010869
0.00107836
0.00107172
0.0010667
0.00106302
0.00106038
0.00105845
0.00105689
0.0010553
0.00105327
0.00105037
0.00104619
0.0010407
0.00103207
0.0010273
0.00129275
0.00128019
0.00127776
0.00128221
0.00129099
0.00130194
0.00131297
0.00132226
0.00132832
0.00133003
0.00132685
0.00131863
0.00130554
0.00128822
0.00126759
0.00124467
0.00122039
0.00119557
0.00117088
0.00114683
0.00112406
0.00110356
0.00108546
0.00106927
0.00105494
0.0010424
0.00103157
0.00102228
0.00101434
0.00100752
0.00100159
0.000996272
0.000991336
0.000986488
0.000981445
0.000975902
0.000969523
0.000962044
0.00095316
0.000941792
0.000931629
0.00109072
0.00108234
0.00108158
0.00108627
0.00109494
0.00110617
0.00111851
0.00113062
0.00114133
0.00114961
0.00115473
0.00115626
0.00115398
0.001148
0.00113866
0.00112652
0.00111223
0.00109639
0.00107957
0.00106221
0.00104493
0.00102872
0.00101386
0.0010001
0.000987493
0.000976027
0.000965623
0.000956137
0.000947497
0.000939522
0.000932032
0.000924848
0.000917792
0.000910655
0.000903236
0.000895349
0.000886776
0.000877381
0.000866967
0.000854963
0.000843954
0.000921303
0.000915713
0.000915869
0.000920257
0.000928105
0.000938507
0.000950416
0.000962873
0.000975015
0.000986028
0.000995258
0.00100221
0.00100653
0.00100803
0.0010067
0.00100271
0.000996355
0.00098805
0.000978168
0.000967042
0.000955114
0.000943241
0.000931808
0.000920709
0.000910083
0.000899974
0.000890365
0.000881228
0.000872461
0.00086398
0.000855679
0.00084745
0.000839179
0.000830742
0.000822013
0.000812905
0.000803303
0.000793147
0.000782329
0.000770591
0.000759618
0.000783594
0.000779788
0.00078042
0.000784379
0.000791306
0.000800591
0.000811446
0.000823156
0.000835088
0.000846633
0.000857263
0.00086655
0.000874135
0.000879751
0.000883241
0.000884561
0.000883766
0.00088099
0.000876466
0.0008704
0.000863053
0.000855067
0.000846808
0.000838297
0.000829719
0.000821171
0.000812683
0.000804254
0.000795858
0.000787474
0.000779047
0.000770521
0.000761849
0.000752968
0.000743816
0.000734369
0.000724588
0.000714447
0.00070392
0.000692878
0.00068242
0.000674533
0.000671873
0.000672741
0.000676276
0.000682362
0.000690564
0.000700265
0.0007109
0.000721987
0.000733058
0.00074369
0.000753534
0.000762277
0.000769652
0.000775454
0.000779556
0.000781902
0.0007825
0.00078142
0.000778776
0.000774727
0.000769712
0.000764026
0.000757743
0.000751066
0.000744106
0.000736919
0.000729541
0.000721972
0.00071424
0.000706341
0.000698245
0.000689956
0.000681445
0.000672691
0.000663697
0.000654477
0.000645005
0.000635306
0.000625297
0.000615738
0.0005877
0.000585783
0.000586692
0.000589772
0.000595052
0.000602214
0.000610747
0.000620193
0.000630167
0.000640297
0.000650247
0.000659735
0.000668505
0.000676323
0.000682993
0.000688364
0.000692337
0.000694854
0.000695904
0.000695497
0.000693697
0.000690809
0.000687056
0.000682535
0.000677434
0.000671848
0.000665858
0.000659529
0.000652908
0.000646
0.000638851
0.00063147
0.000623881
0.000616074
0.000608057
0.000599853
0.00059151
0.00058299
0.000574349
0.000565483
0.000557077
0.000516794
0.00051534
0.00051619
0.000518844
0.000523414
0.000529659
0.000537142
0.000545482
0.000554358
0.000563471
0.000572541
0.00058134
0.000589655
0.000597287
0.00060406
0.000609829
0.00061448
0.000617932
0.000620132
0.00062105
0.000620691
0.000619228
0.000616842
0.000613628
0.000609749
0.000605303
0.000600362
0.000594997
0.000589279
0.000583238
0.000576907
0.000570342
0.000563566
0.000556589
0.000549427
0.000542118
0.00053472
0.000527186
0.000519596
0.000511777
0.000504572
0.000457809
0.000456658
0.000457417
0.000459702
0.000463668
0.000469121
0.000475683
0.000483027
0.000490882
0.000498996
0.000507135
0.00051511
0.000522741
0.000529864
0.000536324
0.000541994
0.000546761
0.00055054
0.000553264
0.000554883
0.000555375
0.000554855
0.000553432
0.000551185
0.000548253
0.000544723
0.000540676
0.000536188
0.000531341
0.000526158
0.000520656
0.000514927
0.000508992
0.00050287
0.000496582
0.000490169
0.000483697
0.000477113
0.000470519
0.000463665
0.000457662
0.000407978
0.00040703
0.00040769
0.000409659
0.000413115
0.000417889
0.000423656
0.000430126
0.000437069
0.000444266
0.000451522
0.000458671
0.000465567
0.000472065
0.000478036
0.000483366
0.000487957
0.000491723
0.000494599
0.000496523
0.000497469
0.000497499
0.000496686
0.000495101
0.000492864
0.000490063
0.000486769
0.000483031
0.000478961
0.000474552
0.000469823
0.000464873
0.000459743
0.000454446
0.000449004
0.000443457
0.000437878
0.000432212
0.000426576
0.000420637
0.000415823
0.000365351
0.000364553
0.000365116
0.000366822
0.000369846
0.000374044
0.000379126
0.000384837
0.000390975
0.000397351
0.000403796
0.000410165
0.000416332
0.000422176
0.000427587
0.000432464
0.000436722
0.000440284
0.000443089
0.000445077
0.000446213
0.000446538
0.000446109
0.000444997
0.000443297
0.000441074
0.00043838
0.000435278
0.000431818
0.000428108
0.000424138
0.000419862
0.000415479
0.000410956
0.000406303
0.000401562
0.000396806
0.000391975
0.000387188
0.00038201
0.000378247
0.000328511
0.000327822
0.000328298
0.000329784
0.000332445
0.000336153
0.000340647
0.000345701
0.000351135
0.000356785
0.000362502
0.00036816
0.00037365
0.000378867
0.000383715
0.000388109
0.000391975
0.000395245
0.000397863
0.000399773
0.000400948
0.000401419
0.000401234
0.000400448
0.000399131
0.000397337
0.000395113
0.000392524
0.000389608
0.000386494
0.000383123
0.000379509
0.000375766
0.000371899
0.000367923
0.000363867
0.000359795
0.000355643
0.000351546
0.000346956
0.000344024
0.000296389
0.000295785
0.000296189
0.000297494
0.000299851
0.000303142
0.000307131
0.000311618
0.00031644
0.000321454
0.000326525
0.000331546
0.000336419
0.000341055
0.00034537
0.000349291
0.000352754
0.0003557
0.000358081
0.000359847
0.000360975
0.000361495
0.000361441
0.000360855
0.000359803
0.000358332
0.000356491
0.000354332
0.000351904
0.000349227
0.000346407
0.000343401
0.000340131
0.000336827
0.000333431
0.000329949
0.000326446
0.000322866
0.000319356
0.000315309
0.000313049
0.00026817
0.000267637
0.000267984
0.000269142
0.000271244
0.000274181
0.000277739
0.000281736
0.000286028
0.000290485
0.000294989
0.000299445
0.000303767
0.000307876
0.000311701
0.00031518
0.000318256
0.000320879
0.000323009
0.000324603
0.000325644
0.000326153
0.000326164
0.000325716
0.000324868
0.000323658
0.000322129
0.000320317
0.000318264
0.00031597
0.000313585
0.000311018
0.000308223
0.000305407
0.000302504
0.000299526
0.000296538
0.000293489
0.000290524
0.000287042
0.000285396
0.000243221
0.000242749
0.000243054
0.000244093
0.000245983
0.00024862
0.000251809
0.000255385
0.000259217
0.00026319
0.000267198
0.000271156
0.000274989
0.000278628
0.000282012
0.000285088
0.000287805
0.000290124
0.000292008
0.000293423
0.000294353
0.000294824
0.000294868
0.000294522
0.00029383
0.000292825
0.000291539
0.00029
0.000288253
0.000286297
0.00028428
0.000282096
0.000279752
0.000277343
0.000274872
0.000272354
0.000269833
0.000267259
0.000264769
0.000261772
0.000260642
0.000221035
0.000220621
0.000220898
0.000221844
0.000223559
0.000225943
0.000228817
0.00023203
0.000235465
0.000239016
0.000242591
0.000246113
0.000249517
0.000252741
0.000255733
0.000258448
0.000260843
0.000262885
0.000264543
0.000265789
0.000266611
0.000267034
0.00026709
0.000266807
0.000266227
0.000265376
0.000264282
0.000262978
0.000261495
0.000259859
0.000258083
0.000256272
0.000254369
0.000252236
0.000250141
0.000248011
0.000245857
0.000243646
0.000241516
0.000238852
0.000238071
0.00020121
0.000200854
0.000201114
0.000201991
0.000203563
0.000205733
0.000208338
0.00021124
0.000214331
0.000217517
0.000220715
0.000223856
0.000226883
0.000229742
0.00023239
0.000234785
0.000236894
0.000238687
0.000240141
0.00024123
0.000241949
0.000242321
0.000242375
0.00024214
0.000241648
0.000240926
0.000239999
0.000238893
0.000237632
0.000236245
0.000234715
0.000233187
0.000231548
0.000229732
0.000227944
0.00022611
0.000224247
0.00022233
0.000220497
0.000218133
0.000217589
0.00018342
0.000183119
0.000183374
0.000184202
0.000185658
0.000187649
0.000190025
0.000192659
0.000195453
0.000198322
0.000201192
0.000204001
0.000206699
0.000209239
0.000211584
0.000213698
0.000215555
0.000217129
0.0002184
0.000219349
0.000219972
0.000220293
0.000220346
0.00022015
0.000219734
0.00021912
0.000218327
0.000217381
0.000216299
0.00021511
0.000213796
0.000212493
0.000211085
0.000209569
0.000208017
0.000206434
0.000204844
0.000203209
0.000201653
0.000199621
0.000199278
0.000167392
0.000167147
0.000167409
0.000168205
0.000169567
0.00017141
0.000173592
0.000175997
0.000178534
0.000181128
0.000183711
0.000186231
0.000188642
0.000190904
0.000192984
0.000194854
0.000196491
0.000197873
0.000198987
0.000199816
0.000200358
0.000200636
0.000200681
0.000200513
0.000200154
0.000199625
0.000198945
0.000198133
0.00019721
0.000196193
0.000195095
0.000193923
0.000192759
0.000191549
0.000190152
0.000188815
0.000187482
0.000186098
0.000184782
0.000183046
0.000182878
0.000152903
0.000152712
0.000152992
0.00015377
0.000155063
0.000156783
0.0001588
0.000161008
0.000163323
0.000165678
0.000168012
0.00017028
0.00017244
0.00017446
0.00017631
0.000177967
0.000179412
0.000180629
0.000181606
0.000182331
0.000182802
0.00018304
0.000183078
0.000182932
0.000182623
0.000182169
0.000181586
0.000180893
0.000180105
0.000179236
0.000178305
0.000177291
0.000176305
0.000175254
0.000174074
0.000172944
0.000171801
0.000170608
0.000169476
0.000167949
0.000167873
0.000139764
0.000139629
0.000139935
0.00014071
0.000141951
0.000143568
0.000145445
0.000147483
0.000149606
0.000151753
0.000153871
0.000155918
0.00015786
0.000159669
0.00016132
0.000162793
0.000164072
0.000165145
0.000166003
0.000166638
0.000167048
0.000167257
0.000167295
0.000167176
0.000166916
0.000166531
0.000166035
0.000165444
0.000164775
0.000164035
0.00016324
0.000162375
0.000161535
0.000160632
0.000159627
0.000158655
0.000157663
0.000156625
0.000155644
0.000154296
0.00015425
0.000127818
0.000127738
0.000128078
0.000128862
0.000130063
0.000131597
0.000133354
0.000135245
0.000137201
0.000139166
0.000141096
0.000142951
0.000144705
0.00014633
0.000147808
0.000149122
0.000150259
0.000151211
0.000151969
0.000152529
0.000152889
0.000153069
0.000153102
0.000152997
0.00015277
0.000152435
0.000152005
0.000151493
0.000150914
0.000150276
0.000149593
0.000148847
0.000148124
0.000147335
0.000146508
0.000145651
0.000144784
0.000143892
0.000143048
0.000141892
0.000141813
0.000116929
0.000116906
0.000117287
0.000118086
0.00011926
0.000120724
0.000122378
0.00012414
0.00012595
0.000127757
0.000129522
0.000131211
0.0001328
0.000134267
0.000135596
0.000136774
0.00013779
0.000138639
0.000139315
0.000139817
0.00014014
0.000140307
0.000140347
0.00014027
0.000140087
0.000139812
0.000139454
0.000139027
0.000138542
0.000138004
0.000137421
0.000136797
0.00013615
0.000135486
0.000134819
0.000134048
0.000133323
0.000132578
0.000131857
0.000130874
0.000130782
0.000106984
0.000107018
0.000107445
0.000108265
0.000109419
0.000110822
0.000112386
0.000114036
0.000115716
0.000117384
0.000119004
0.000120549
0.000121995
0.000123326
0.000124528
0.000125589
0.000126503
0.000127263
0.000127867
0.000128312
0.000128599
0.000128743
0.000128776
0.000128704
0.000128538
0.000128289
0.000127971
0.000127595
0.000127164
0.000126687
0.000126171
0.000125626
0.000125051
0.000124468
0.000123857
0.000123216
0.000122601
0.000121954
0.000121314
0.000120479
0.000120263
9.78869e-05
9.79768e-05
9.84536e-05
9.92985e-05
0.000100434
0.000101782
0.000103262
0.000104809
0.000106374
0.000107921
0.000109415
0.000110833
0.000112157
0.000113371
0.000114465
0.000115431
0.000116263
0.000116958
0.000117516
0.000117937
0.000118219
0.000118376
0.000118438
0.00011841
0.000118301
0.000118123
0.000117886
0.000117591
0.000117245
0.000116856
0.000116428
0.00011597
0.000115487
0.000114972
0.000114433
0.000113891
0.000113362
0.000112801
0.000112237
0.000111524
0.000111265
8.9555e-05
8.96991e-05
9.02273e-05
9.1095e-05
9.22137e-05
9.35071e-05
9.49057e-05
9.63551e-05
9.78138e-05
9.92493e-05
0.000100633
0.000101944
0.000103164
0.00010428
0.000105281
0.000106162
0.000106918
0.000107546
0.000108043
0.00010841
0.000108645
0.000108757
0.00010878
0.000108718
0.000108584
0.000108392
0.000108143
0.000107848
0.000107512
0.00010714
0.000106742
0.000106322
0.000105886
0.000105399
0.000104902
0.00010444
0.000103976
0.000103485
0.000102969
0.000102405
0.000101851
8.19187e-05
8.21124e-05
8.26856e-05
8.3568e-05
8.4662e-05
8.59022e-05
8.72267e-05
8.85865e-05
8.99454e-05
9.12755e-05
9.2555e-05
9.37668e-05
9.48966e-05
9.59324e-05
9.68651e-05
9.76899e-05
9.84055e-05
9.90131e-05
9.95159e-05
9.99177e-05
0.000100216
0.000100418
0.000100548
0.000100608
0.000100605
0.000100537
0.00010041
0.000100229
9.99981e-05
9.97273e-05
9.94222e-05
9.908e-05
9.87175e-05
9.82811e-05
9.78267e-05
9.74278e-05
9.70035e-05
9.65474e-05
9.60579e-05
9.55507e-05
9.50029e-05
7.49249e-05
7.51638e-05
7.57699e-05
7.66412e-05
7.76866e-05
7.88568e-05
8.01054e-05
8.13894e-05
8.26709e-05
8.39182e-05
8.51086e-05
8.62267e-05
8.72646e-05
8.82156e-05
8.90734e-05
8.98289e-05
9.04735e-05
9.09995e-05
9.14023e-05
9.1685e-05
9.18403e-05
9.18812e-05
9.18451e-05
9.17438e-05
9.15832e-05
9.13777e-05
9.11345e-05
9.08616e-05
9.05712e-05
9.02689e-05
8.99502e-05
8.96154e-05
8.92747e-05
8.88933e-05
8.84825e-05
8.81511e-05
8.77873e-05
8.7413e-05
8.69779e-05
8.66975e-05
8.55517e-05
6.85261e-05
6.88109e-05
6.94447e-05
7.02864e-05
7.12468e-05
7.23007e-05
7.34275e-05
7.46021e-05
7.57997e-05
7.69895e-05
7.814e-05
7.92214e-05
8.02152e-05
8.11132e-05
8.19207e-05
8.26497e-05
8.3314e-05
8.39239e-05
8.44828e-05
8.49915e-05
8.54382e-05
8.58217e-05
8.61515e-05
8.64059e-05
8.65807e-05
8.66754e-05
8.66932e-05
8.66448e-05
8.6535e-05
8.6364e-05
8.61363e-05
8.58669e-05
8.55476e-05
8.52218e-05
8.47592e-05
8.43005e-05
8.39059e-05
8.34664e-05
8.29612e-05
8.25268e-05
8.16713e-05
6.26596e-05
6.29774e-05
6.3634e-05
6.44525e-05
6.53423e-05
6.62818e-05
6.72534e-05
6.82464e-05
6.92592e-05
7.0291e-05
7.13351e-05
7.23736e-05
7.33762e-05
7.43034e-05
7.51137e-05
7.57732e-05
7.62632e-05
7.65812e-05
7.67398e-05
7.67633e-05
7.66634e-05
7.64696e-05
7.62146e-05
7.5925e-05
7.56149e-05
7.52954e-05
7.49825e-05
7.46794e-05
7.43852e-05
7.41013e-05
7.38323e-05
7.35798e-05
7.33305e-05
7.31052e-05
7.27835e-05
7.24777e-05
7.22905e-05
7.20866e-05
7.17388e-05
7.18071e-05
6.97775e-05
5.72844e-05
5.75671e-05
5.81629e-05
5.89075e-05
5.97405e-05
6.06497e-05
6.15974e-05
6.25385e-05
6.34386e-05
6.42807e-05
6.50691e-05
6.58275e-05
6.65917e-05
6.73983e-05
6.82734e-05
6.92265e-05
7.02473e-05
7.13093e-05
7.23747e-05
7.34031e-05
7.43641e-05
7.52245e-05
7.59762e-05
7.65951e-05
7.70759e-05
7.74251e-05
7.76473e-05
7.77507e-05
7.77447e-05
7.76416e-05
7.74541e-05
7.71876e-05
7.6843e-05
7.64446e-05
7.59055e-05
7.53164e-05
7.47827e-05
7.41774e-05
7.34764e-05
7.28542e-05
7.17147e-05
5.24536e-05
5.26407e-05
5.30314e-05
5.34765e-05
5.39948e-05
5.46571e-05
5.54944e-05
5.64972e-05
5.76178e-05
5.87752e-05
5.98684e-05
6.08e-05
6.14944e-05
6.19108e-05
6.20475e-05
6.19378e-05
6.16393e-05
6.12184e-05
6.07356e-05
6.02492e-05
5.9746e-05
5.92398e-05
5.87253e-05
5.82254e-05
5.77492e-05
5.7291e-05
5.68646e-05
5.64813e-05
5.61499e-05
5.58651e-05
5.56332e-05
5.54484e-05
5.52906e-05
5.51906e-05
5.50316e-05
5.49173e-05
5.49281e-05
5.49653e-05
5.48102e-05
5.5475e-05
5.24638e-05
4.82725e-05
4.85072e-05
4.88298e-05
4.90104e-05
4.9048e-05
4.90342e-05
4.90492e-05
4.9173e-05
4.94938e-05
5.01044e-05
5.10835e-05
5.24732e-05
5.42569e-05
5.63592e-05
5.86618e-05
6.10316e-05
6.33435e-05
6.54953e-05
6.7415e-05
6.905e-05
7.04203e-05
7.15448e-05
7.24197e-05
7.30653e-05
7.35166e-05
7.38095e-05
7.39647e-05
7.40107e-05
7.39467e-05
7.37947e-05
7.35654e-05
7.32473e-05
7.28421e-05
7.2379e-05
7.18469e-05
7.12298e-05
7.05921e-05
6.99262e-05
6.91786e-05
6.86696e-05
6.68335e-05
4.47381e-05
4.51457e-05
4.5733e-05
4.62173e-05
4.64708e-05
4.6454e-05
4.61523e-05
4.55938e-05
4.48641e-05
4.40966e-05
4.34562e-05
4.31042e-05
4.31476e-05
4.36003e-05
4.43796e-05
4.53453e-05
4.63481e-05
4.72683e-05
4.80272e-05
4.85996e-05
4.89474e-05
4.90848e-05
4.89741e-05
4.87138e-05
4.83803e-05
4.79911e-05
4.75546e-05
4.71899e-05
4.70147e-05
4.69478e-05
4.68643e-05
4.67434e-05
4.66488e-05
4.65488e-05
4.64149e-05
4.62981e-05
4.61596e-05
4.59251e-05
4.57233e-05
4.50794e-05
4.57036e-05
4.15651e-05
4.14823e-05
4.21734e-05
4.43167e-05
4.79708e-05
5.2525e-05
5.72762e-05
6.17666e-05
6.57668e-05
6.91821e-05
7.19887e-05
7.41987e-05
7.5847e-05
7.69795e-05
7.76505e-05
7.79197e-05
7.78498e-05
7.75024e-05
7.6937e-05
7.61994e-05
7.5343e-05
7.45803e-05
7.37772e-05
7.29793e-05
7.21895e-05
7.13926e-05
7.06034e-05
6.97163e-05
6.87118e-05
6.76561e-05
6.65815e-05
6.55079e-05
6.44206e-05
6.32683e-05
6.20781e-05
6.08504e-05
5.95157e-05
5.80467e-05
5.6401e-05
5.49733e-05
5.36527e-05
0.373105
0.249955
0.195296
0.165534
0.14537
0.129406
0.115801
0.10363
0.0923571
0.0816355
0.0710591
0.0603638
0.0498368
0.0399194
0.0304419
0.0192966
0.00715541
0.00302182
0.00843458
0.0153086
0.0194937
0.0199479
0.0175916
0.0134762
0.00843848
0.0032134
0.00212443
0.000888898
0.00069754
8.27923e-05
1.24572e-05
0.000230838
0.00031674
0.000311354
0.000295806
0.000279134
0.000269915
0.000250072
0.000238222
0.000235301
0.00023605
0.000219064
0.000213731
0.000204748
0.00020243
0.00021527
0.000212043
0.000192684
0.000167753
0.000150099
0.000141828
0.00014311
0.000138318
0.000130992
0.000128472
0.000131695
0.000130477
0.000135282
0.00012953
0.000126028
0.000123279
0.000122006
0.000119666
0.000117508
0.000114597
0.00011014
0.000104026
9.67518e-05
8.86797e-05
7.97296e-05
7.00927e-05
5.75354e-05
5.00617e-05
3.76211e-05
0.391482
0.314007
0.242688
0.201753
0.174616
0.154572
0.138828
0.125663
0.114014
0.103281
0.0929906
0.0827141
0.0724434
0.0625646
0.0533196
0.0418651
0.0255395
0.0174107
0.0221265
0.0269757
0.0295362
0.0294985
0.0272158
0.0232529
0.0181084
0.012261
0.00635882
0.00170936
0.0014564
0.000263513
0.00014114
6.14079e-05
0.000155322
0.000293376
0.00032603
0.000293029
0.000263171
0.000242633
0.000237771
0.000235813
0.000233381
0.000214174
0.000205971
0.000202558
0.000200432
0.000217173
0.000205194
0.000189616
0.000170629
0.000156601
0.000144693
0.000139612
0.000134953
0.000134858
0.00013885
0.000144915
0.000140325
0.000140685
0.000132707
0.000128087
0.00012501
0.000123477
0.000120409
0.000117582
0.000114201
0.000109208
0.00010258
9.4773e-05
8.63105e-05
7.69858e-05
6.73155e-05
5.54878e-05
4.92119e-05
3.95318e-05
0.320764
0.173089
0.169073
0.169541
0.161223
0.150717
0.140849
0.131903
0.123472
0.115274
0.107128
0.0987658
0.0900756
0.0813623
0.0732783
0.0640799
0.0495268
0.0367637
0.0364118
0.0388039
0.0392946
0.0383182
0.0360496
0.032545
0.027938
0.022421
0.0162526
0.00994584
0.00425862
0.00154915
0.000550719
0.000701367
0.000170396
0.00010046
0.000198808
0.000284235
0.000278436
0.000249019
0.000235695
0.000230428
0.000226393
0.000212182
0.000203216
0.00020273
0.000198911
0.000191014
0.000183929
0.000175757
0.000165029
0.000156916
0.000146668
0.000140516
0.000137006
0.000136721
0.000140365
0.000144504
0.000144663
0.000140662
0.000135479
0.00013041
0.000126516
0.000124338
0.000120799
0.000117445
0.000113587
0.000108309
0.000101479
9.33211e-05
8.45183e-05
7.48775e-05
6.53287e-05
5.42876e-05
4.92047e-05
4.12667e-05
0.29181
0.244142
0.183265
0.128691
0.0867652
0.0812637
0.092381
0.100305
0.104249
0.105226
0.104099
0.101342
0.097164
0.0918651
0.0862938
0.0801478
0.0700414
0.0572014
0.0518333
0.0519547
0.0508426
0.0484063
0.0453892
0.0418392
0.0376198
0.0326607
0.0269686
0.0206468
0.0139734
0.00761367
0.00242506
0.00122358
0.00057486
0.00011209
9.44989e-05
4.97749e-05
0.00019645
0.00025381
0.000257031
0.000237122
0.00022067
0.000208622
0.000203649
0.000204703
0.000199843
0.000180573
0.000166914
0.000157171
0.000150969
0.000149518
0.000145362
0.000142211
0.000140129
0.000137891
0.000137916
0.000137859
0.000140198
0.000140411
0.000137225
0.000132563
0.00012779
0.00012466
0.000120675
0.000116877
0.000112698
0.000107354
0.00010064
9.25075e-05
8.36279e-05
7.38765e-05
6.46416e-05
5.43691e-05
4.99768e-05
4.21529e-05
0.222402
0.210342
0.191944
0.173958
0.153085
0.129817
0.105364
0.0796848
0.0536078
0.0482584
0.0633883
0.0744679
0.0811566
0.0843468
0.0850347
0.0840026
0.0798642
0.0721367
0.0660548
0.0645193
0.062904
0.0595753
0.0555362
0.0513835
0.0471029
0.0425007
0.0374069
0.0317222
0.0254325
0.0186927
0.0119684
0.00599079
0.00164188
0.00100303
0.000201057
0.000100143
5.53453e-05
4.88357e-05
0.000170879
0.000232784
0.000237966
0.000221394
0.000208126
0.00020376
0.00019761
0.000179487
0.000160507
0.000146642
0.000141586
0.000142517
0.000141097
0.000140287
0.000141369
0.000141472
0.000141575
0.000139174
0.00013816
0.000138529
0.000137278
0.000133979
0.000128962
0.000124768
0.0001201
0.000115765
0.000111343
0.000106089
9.97139e-05
9.19651e-05
8.3364e-05
7.38333e-05
6.50938e-05
5.56255e-05
5.1547e-05
4.26164e-05
0.161887
0.154993
0.147961
0.143897
0.140199
0.135265
0.128678
0.120048
0.109039
0.0956106
0.0797719
0.0611065
0.03886
0.037258
0.053282
0.0633713
0.0690706
0.0713289
0.0710575
0.0712335
0.0712006
0.0689718
0.0650559
0.0605933
0.0561167
0.0516535
0.0470365
0.0420773
0.0366257
0.0306133
0.0240911
0.0173063
0.0108096
0.00528216
0.00134495
0.000687551
0.000998167
9.20715e-05
5.60749e-05
8.76598e-06
0.000129836
0.000201895
0.000226207
0.000219768
0.000201436
0.000178385
0.000157497
0.000142819
0.000138128
0.000140016
0.000140471
0.000141385
0.000143967
0.000145256
0.000145867
0.000142828
0.000139591
0.00013776
0.000136683
0.000134734
0.00013036
0.000125513
0.000119849
0.000114549
0.000109642
0.00010445
9.85202e-05
9.14319e-05
8.34239e-05
7.44244e-05
6.63657e-05
5.77689e-05
5.39378e-05
4.35694e-05
0.0983719
0.0939722
0.090348
0.0895702
0.0906514
0.0928666
0.0956402
0.0982867
0.100014
0.100148
0.0981865
0.0937945
0.0866755
0.0765997
0.0634754
0.047287
0.0268932
0.034696
0.0502838
0.0599919
0.0663958
0.0693714
0.0689426
0.066327
0.0627568
0.0588904
0.0549108
0.0507597
0.0462945
0.0413828
0.0359255
0.029904
0.0234342
0.0168107
0.0105795
0.0053568
0.00179163
0.000619455
4.23118e-05
0.000125695
4.17055e-05
6.36307e-05
0.000127486
0.000178641
0.000205447
0.000192375
0.000167755
0.000147695
0.00013877
0.000139144
0.000141478
0.000144419
0.000147433
0.000148075
0.000147955
0.000144796
0.000141313
0.00013813
0.00013618
0.000135021
0.00013197
0.000127422
0.000121022
0.000114418
0.000108435
0.000102857
9.71881e-05
9.0855e-05
8.36588e-05
7.54032e-05
6.81147e-05
6.03756e-05
5.68243e-05
4.53129e-05
0.0396352
0.0375562
0.0357144
0.0352685
0.0359625
0.037766
0.0408474
0.0451695
0.0505054
0.0564953
0.0626585
0.0684151
0.073114
0.0760711
0.0766882
0.0747405
0.0701891
0.0624116
0.0497416
0.0306312
0.0290969
0.0452371
0.0548298
0.0595382
0.0608203
0.0600511
0.0581767
0.0556776
0.0527168
0.0492977
0.045349
0.0408001
0.0356115
0.0298066
0.0235371
0.0171137
0.0110339
0.00587269
0.00220162
0.000582557
0.00105746
0.000573118
3.86608e-05
5.39972e-05
0.000101627
0.000138906
0.000167035
0.00016558
0.000154451
0.000146132
0.000142897
0.000145112
0.000149473
0.000151045
0.000150308
0.000146248
0.000141987
0.000137959
0.000135058
0.000134179
0.000132683
0.000129572
0.000123607
0.000116269
0.000109024
0.000102433
9.64137e-05
9.05065e-05
8.40879e-05
7.66607e-05
7.01284e-05
6.31544e-05
5.98946e-05
4.76711e-05
0.00771453
0.00679848
0.00592798
0.00547446
0.00534561
0.00549453
0.0061037
0.00734778
0.00937359
0.0123137