/*--------------------------------*- C++ -*----------------------------------*\
| =========                 |                                                 |
| \\      /  F ield         | OpenFOAM: The Open Source CFD Toolbox           |
|  \\    /   O peration     | Version:  2312                                  |
|   \\  /    A nd           | Website:  www.openfoam.com                      |
|    \\/     M anipulation  |                                                 |
\*---------------------------------------------------------------------------*/
FoamFile
{
    version     2.0;
    format      ascii;
    arch        "LSB;label=32;scalar=64";
    class       volScalarField;
    location    "100";
    object      turbulenceProperties:k;
}
// * * * * * * * * * * * * * * * * * * * * * * * * * * * * * * * * * * * * * //

dimensions      [0 2 -2 0 0 0 0];

internalField   nonuniform List<scalar> 
11040
(
1.30704
2.75143
4.30131
6.09723
7.88836
15.3936
20.3914
20.0349
22.2994
24.3323
26.631
29.4695
32.3423
34.7356
36.5073
37.741
38.5187
38.8545
38.707
38.0421
36.7467
35.0196
33.2522
31.6173
30.1025
28.5848
27.0402
25.4628
23.8476
22.187
20.4753
18.7057
16.8752
14.9772
13.0111
11.002
8.9673
6.98711
4.838
2.82988
1.39865
0.188637
0.228846
0.35541
0.797252
1.92219
4.91714
10.2914
16.2815
21.2373
25.6019
28.5232
29.4905
28.7526
26.8692
24.3807
21.7248
19.1993
16.9462
14.9977
13.3195
12.0137
11.0349
10.2535
9.55012
8.9446
8.42603
7.97899
7.59173
7.25695
6.97042
6.72693
6.52204
6.34949
6.20318
6.07665
5.95927
5.84133
5.68555
5.49082
4.98518
7.04377
0.109394
0.080364
0.0721657
0.0587031
0.0237758
0.110014
0.475873
1.18948
2.06421
2.98179
4.0773
5.52371
7.3877
9.58926
11.9164
14.0699
15.752
16.7532
17.0132
16.6229
15.7371
14.6783
13.685
12.7453
11.9216
11.2074
10.583
10.0345
9.55131
9.12359
8.74264
8.40135
8.09549
7.82029
7.57607
7.3633
7.19082
7.03492
6.94902
6.58927
7.20282
0.0765166
0.0711098
0.0622389
0.0531259
0.0447686
0.0321558
0.0181467
0.0100526
0.00424774
0.00492317
0.0147728
0.0322615
0.070282
0.156662
0.337803
0.68933
1.30352
2.2495
3.53589
5.08222
6.74092
8.2352
9.35673
10.0695
10.4476
10.5901
10.5679
10.439
10.2474
10.0252
9.79342
9.56623
9.35246
9.15588
8.97948
8.82256
8.69296
8.56708
8.51088
8.23958
8.58697
0.0528916
0.0512197
0.0470462
0.0407048
0.0344695
0.0299041
0.0249046
0.0184173
0.0123949
0.00834411
0.00592725
0.00431529
0.00294016
0.00160051
0.000541469
9.67709e-05
0.00013108
0.00125548
0.00646566
0.0514365
0.197485
0.511422
1.00317
1.64464
2.39934
3.22374
4.06846
4.89029
5.65727
6.34939
6.95708
7.47962
7.9221
8.29436
8.60654
8.86441
9.07949
9.24007
9.40268
9.39836
9.71879
0.0359172
0.0362613
0.0353064
0.0325836
0.0290734
0.025852
0.0232837
0.0209143
0.0182814
0.0154048
0.0126472
0.010385
0.0087375
0.00751793
0.00640591
0.00509715
0.00361508
0.00134144
0.00269628
0.00958508
0.00551019
0.00358101
0.00249581
0.00782117
0.0198826
0.060174
0.14576
0.293703
0.520885
0.841778
1.26691
1.80255
2.44923
3.20458
4.05769
4.98456
5.95229
6.92038
7.86765
8.64315
9.64268
0.0248821
0.0255678
0.0261147
0.0256775
0.0242288
0.022168
0.019989
0.0179213
0.0158684
0.0137085
0.0115284
0.00957008
0.0080259
0.00690678
0.00609496
0.00548572
0.00501427
0.00454869
0.00398742
0.00341268
0.00280404
0.00153813
6.81176e-05
2.04403e-05
0.00417884
0.009125
0.000123195
0.000202511
0.0011507
0.00526778
0.0139677
0.0357039
0.0868746
0.190878
0.381024
0.700077
1.19496
1.91675
2.90695
4.06807
5.84169
0.0174143
0.0179916
0.0187753
0.019113
0.0187716
0.017897
0.0167251
0.0154058
0.0139533
0.0123492
0.0106552
0.00902311
0.00761675
0.00650869
0.00566252
0.00501086
0.00450622
0.00412798
0.00382477
0.00352346
0.00320614
0.00301224
0.00265038
0.00227445
0.0017748
0.00136834
0.00091506
0.00047589
0.000247301
0.000559526
0.00168601
0.000186583
5.11759e-05
0.012028
0.000685181
0.0079406
0.0296945
0.0881304
0.234082
0.501325
1.22165
0.0123279
0.0127344
0.0133951
0.013956
0.0141873
0.0140374
0.0135642
0.0128449
0.011929
0.0108402
0.00963068
0.00839837
0.00726231
0.00630429
0.00553311
0.0049158
0.00441815
0.00401616
0.00368841
0.00341554
0.00318662
0.00299593
0.00283107
0.00264838
0.00249975
0.00232723
0.0021839
0.00207279
0.00186933
0.00163967
0.00134473
0.00103148
0.00059684
4.3416e-05
0.000116794
0.000469572
0.00188071
2.5435e-05
0.00176982
0.00582181
0.0508334
0.0087831
0.00905056
0.00951932
0.010015
0.0103882
0.0105554
0.0104949
0.0102266
0.00977285
0.00915387
0.00840179
0.00757106
0.00673712
0.00597167
0.00530962
0.00475182
0.00428548
0.00389688
0.0035725
0.00329767
0.00306146
0.00285739
0.00267819
0.00252042
0.00239075
0.00228704
0.00220936
0.00215404
0.00212932
0.00209174
0.00204701
0.00196161
0.00189674
0.00175318
0.00149862
0.00108619
0.000663263
0.000123412
0.000146646
0.000221294
0.00242962
0.0062852
0.00645802
0.00676945
0.00713817
0.00748577
0.00774999
0.00789053
0.00788918
0.00774228
0.007454
0.00704259
0.00653751
0.00598247
0.00542853
0.00491299
0.004453
0.00405147
0.0037052
0.0034083
0.00315224
0.00292917
0.00273536
0.00256524
0.00241429
0.00228476
0.00217805
0.002092
0.00202341
0.00197122
0.00193285
0.00190768
0.00189308
0.00188795
0.0018969
0.00189873
0.0018629
0.00176803
0.00151933
0.00116711
0.000774519
0.000211183
0.0045083
0.00461875
0.00481948
0.00507245
0.00533946
0.00558481
0.00577671
0.00589164
0.00591446
0.00583841
0.00566702
0.00541208
0.00509455
0.00474369
0.00438706
0.00404438
0.00372649
0.00343819
0.00318059
0.00295148
0.00274832
0.00257124
0.00241689
0.00228017
0.0021609
0.00205961
0.00197489
0.00190432
0.00184558
0.0017971
0.00175753
0.0017259
0.00170089
0.00168225
0.00167059
0.00166557
0.00166116
0.00166635
0.00163866
0.00160261
0.00135033
0.0032373
0.00330757
0.00343562
0.00360315
0.00379219
0.00398467
0.00416155
0.00430496
0.0043998
0.00443476
0.00440533
0.00431255
0.00416384
0.00397335
0.00375733
0.00353065
0.00330476
0.00308737
0.00288317
0.00269404
0.00252127
0.00236824
0.00223407
0.00211463
0.00200929
0.00191774
0.00183886
0.00177138
0.00171347
0.00166357
0.00162033
0.00158252
0.00154892
0.00151833
0.00148975
0.00146276
0.00143665
0.00141332
0.00139324
0.00137385
0.00136218
0.00232463
0.00236924
0.00245067
0.00255977
0.00268807
0.00282677
0.00296569
0.00309401
0.00320111
0.00327731
0.00331615
0.00331424
0.00327167
0.00319308
0.00308588
0.00295843
0.00281868
0.00267338
0.00252785
0.00238553
0.00224981
0.00212593
0.00201501
0.0019146
0.00182438
0.00174407
0.00167326
0.00161094
0.00155593
0.00150707
0.00146332
0.0014237
0.00138724
0.00135295
0.0013199
0.00128727
0.00125426
0.00122008
0.00118488
0.00114516
0.00111636
0.00166773
0.00169618
0.00174812
0.0018187
0.001904
0.00199978
0.00210081
0.00220121
0.00229467
0.00237465
0.00243571
0.00247375
0.0024863
0.00247319
0.0024365
0.00237986
0.00230745
0.00222351
0.00213204
0.00203629
0.00193978
0.00184792
0.00176287
0.0016837
0.00161079
0.00154421
0.00148379
0.001429
0.00137924
0.00133375
0.00129185
0.00125284
0.00121609
0.00118088
0.00114661
0.00111273
0.00107868
0.00104397
0.00100812
0.000969291
0.000935076
0.00119497
0.0012133
0.00124659
0.00129202
0.001348
0.0014125
0.0014828
0.00155576
0.00162794
0.00169546
0.00175466
0.00180239
0.00183604
0.001854
0.00185579
0.00184216
0.00181478
0.00177558
0.00172679
0.00167055
0.00160946
0.00154789
0.00148817
0.00143036
0.0013753
0.00132346
0.00127487
0.00122937
0.00118686
0.00114697
0.00110929
0.00107346
0.00103912
0.00100583
0.000973213
0.000941009
0.000908891
0.000876622
0.000843922
0.00080992
0.000779482
0.00085699
0.000868788
0.00089014
0.00091931
0.000955839
0.000998768
0.00104658
0.00109759
0.00114995
0.00120149
0.00125003
0.00129352
0.00133001
0.00135789
0.00137604
0.0013839
0.0013816
0.00136984
0.00134949
0.00132156
0.0012875
0.00125027
0.00121185
0.0011727
0.0011338
0.00109574
0.00105884
0.00102328
0.000989043
0.000956073
0.00092426
0.000893466
0.000863539
0.000834277
0.000805496
0.000777122
0.000749022
0.000721097
0.000693205
0.000665011
0.000639387
0.000622289
0.000629965
0.000643943
0.000663079
0.000687397
0.000716411
0.000749192
0.000784747
0.000822039
0.000859853
0.000896902
0.000931946
0.000963734
0.000991074
0.00101294
0.00102858
0.00103752
0.00103963
0.00103513
0.00102435
0.00100788
0.00098745
0.000964441
0.000939423
0.000913278
0.00088661
0.000859806
0.000833116
0.000806699
0.000780675
0.000755068
0.000729882
0.000705121
0.000680728
0.000656652
0.00063292
0.000609523
0.000586418
0.000563589
0.000540884
0.000519998
0.000462328
0.000467496
0.000476994
0.000490019
0.000506785
0.000527024
0.000550116
0.000575415
0.000602287
0.000629991
0.000657735
0.000684749
0.000710232
0.000733363
0.000753373
0.000769602
0.000781544
0.00078886
0.000791397
0.000789188
0.000782436
0.000772059
0.00075892
0.000743484
0.000726462
0.000708346
0.000689485
0.000670151
0.000650521
0.000630791
0.000611074
0.000591416
0.000571905
0.00055255
0.000533367
0.000514417
0.00049576
0.000477355
0.000459258
0.000441376
0.000424768
0.000351597
0.000355168
0.00036177
0.000370849
0.000382688
0.00039713
0.000413728
0.000432027
0.000451604
0.000471979
0.000492638
0.000513086
0.000532809
0.000551256
0.000567891
0.000582214
0.000593805
0.000602317
0.000607515
0.000609247
0.000607496
0.000602754
0.000595535
0.000586195
0.000575249
0.000563043
0.000549881
0.000536025
0.00052168
0.000506969
0.00049206
0.000477045
0.000462027
0.000447038
0.000432129
0.000417372
0.000402861
0.000388545
0.00037451
0.000360634
0.000347785
0.00027221
0.000274689
0.000279342
0.000285793
0.000294325
0.000304845
0.000317008
0.000330483
0.000344966
0.000360131
0.000375619
0.000391104
0.000406232
0.000420634
0.000433927
0.000445754
0.000455787
0.000463741
0.00046939
0.000472558
0.000473148
0.000471368
0.000467544
0.000461928
0.000454881
0.000446665
0.0004375
0.000427598
0.000417154
0.000406293
0.00039513
0.000383804
0.000372395
0.000360951
0.000349523
0.00033819
0.000327042
0.000316023
0.000305236
0.000294491
0.00028475
0.000213795
0.000215519
0.000218844
0.000223508
0.000229774
0.000237571
0.000246631
0.000256702
0.000267557
0.000278958
0.00029065
0.000302401
0.000313966
0.000325086
0.000335491
0.000344927
0.000353148
0.000359937
0.000365104
0.000368493
0.000369998
0.000369721
0.000367827
0.000364482
0.000359935
0.000354377
0.000347987
0.000340935
0.000333389
0.000325434
0.000317144
0.000308674
0.000300085
0.000291425
0.000282743
0.000274106
0.000265602
0.000257173
0.000248936
0.000240635
0.000233417
0.000169873
0.000171073
0.000173474
0.000176897
0.00018157
0.000187435
0.000194283
0.00020191
0.000210147
0.000218811
0.000227716
0.000236691
0.000245559
0.000254133
0.00026222
0.000269636
0.000276201
0.000281749
0.000286136
0.00028923
0.000290944
0.000291313
0.000290427
0.000288406
0.000285427
0.000281639
0.000277173
0.000272131
0.000266683
0.000260857
0.000254715
0.000248394
0.000241961
0.000235452
0.000228903
0.000222371
0.000215938
0.000209553
0.000203332
0.000196963
0.000191779
0.00013627
0.000137107
0.000138857
0.000141403
0.000144936
0.000149408
0.000154648
0.000160494
0.000166812
0.000173461
0.0001803
0.000187198
0.000194024
0.000200639
0.000206906
0.000212685
0.000217849
0.000222272
0.000225846
0.000228469
0.000230065
0.00023065
0.000230285
0.00022906
0.000227099
0.000224497
0.000221338
0.000217718
0.000213714
0.000209461
0.000204972
0.000200226
0.00019543
0.000190565
0.000185654
0.000180743
0.000175906
0.000171089
0.000166403
0.000161475
0.00015783
0.000110188
0.000110769
0.000112054
0.000113972
0.000116677
0.000120127
0.000124181
0.00012871
0.000133603
0.000138753
0.000144047
0.000149385
0.000154669
0.000159792
0.000164652
0.000169146
0.00017318
0.000176661
0.000179507
0.000181639
0.000183006
0.000183615
0.000183514
0.000182761
0.000181437
0.000179609
0.00017734
0.000174708
0.000171768
0.00016865
0.000165319
0.000161802
0.000158209
0.000154553
0.000150855
0.000147147
0.000143483
0.000139815
0.000136251
0.000132373
0.000129818
8.96932e-05
9.00943e-05
9.10467e-05
9.25096e-05
9.46053e-05
9.72968e-05
0.000100466
0.000104007
0.000107832
0.000111854
0.000115983
0.000120142
0.000124253
0.000128237
0.000132016
0.000135513
0.000138656
0.000141377
0.000143615
0.000145311
0.000146428
0.000146977
0.000146986
0.000146496
0.000145569
0.000144257
0.00014261
0.000140687
0.000138537
0.000136188
0.000133736
0.000131153
0.000128392
0.000125634
0.00012284
0.00012002
0.000117223
0.000114414
0.000111695
0.000108649
0.000106874
7.34203e-05
7.36965e-05
7.44095e-05
7.5539e-05
7.71816e-05
7.93026e-05
8.18039e-05
8.45986e-05
8.76135e-05
9.07786e-05
9.4023e-05
9.72844e-05
0.000100502
0.000103615
0.000106563
0.000109288
0.000111737
0.000113858
0.000115607
0.000116939
0.000117831
0.000118288
0.000118334
0.000118004
0.000117345
0.000116394
0.000115188
0.000113765
0.000112161
0.000110387
0.000108554
0.000106603
0.000104513
0.000102428
0.000100307
9.81611e-05
9.60359e-05
9.38993e-05
9.18448e-05
8.94972e-05
8.83188e-05
6.03849e-05
6.0574e-05
6.11142e-05
6.19976e-05
6.32998e-05
6.49883e-05
6.6981e-05
6.92053e-05
7.1601e-05
7.41106e-05
7.66773e-05
7.9251e-05
8.17835e-05
8.42275e-05
8.65361e-05
8.86664e-05
9.05767e-05
9.22296e-05
9.35912e-05
9.46295e-05
9.53267e-05
9.56927e-05
9.57491e-05
9.55222e-05
9.50448e-05
9.43443e-05
9.3446e-05
9.23752e-05
9.11663e-05
8.98249e-05
8.84479e-05
8.69734e-05
8.5411e-05
8.3822e-05
8.22105e-05
8.05884e-05
7.89828e-05
7.73656e-05
7.58158e-05
7.39986e-05
7.32538e-05
4.98607e-05
4.99912e-05
5.04065e-05
5.11074e-05
5.21521e-05
5.35099e-05
5.5112e-05
5.6897e-05
5.88155e-05
6.08196e-05
6.28639e-05
6.49074e-05
6.69122e-05
6.88408e-05
7.06574e-05
7.23286e-05
7.38237e-05
7.5114e-05
7.6175e-05
7.69828e-05
7.75256e-05
7.78134e-05
7.78651e-05
7.76992e-05
7.73424e-05
7.6814e-05
7.61344e-05
7.53269e-05
7.44126e-05
7.34108e-05
7.23326e-05
7.12396e-05
7.01009e-05
6.88456e-05
6.76217e-05
6.63906e-05
6.51595e-05
6.39114e-05
6.27193e-05
6.12667e-05
6.07916e-05
4.13073e-05
4.13997e-05
4.17244e-05
4.22897e-05
4.3138e-05
4.42411e-05
4.55405e-05
4.69849e-05
4.85327e-05
5.01445e-05
5.17834e-05
5.34159e-05
5.50121e-05
5.65421e-05
5.79782e-05
5.92948e-05
6.04687e-05
6.14783e-05
6.2306e-05
6.29338e-05
6.33545e-05
6.35776e-05
6.36188e-05
6.34946e-05
6.32235e-05
6.28225e-05
6.23076e-05
6.16948e-05
6.09992e-05
6.02387e-05
5.94073e-05
5.85803e-05
5.77019e-05
5.67418e-05
5.58037e-05
5.48505e-05
5.3893e-05
5.29191e-05
5.19944e-05
5.08324e-05
5.05264e-05
3.43162e-05
3.43835e-05
3.46432e-05
3.51074e-05
3.58047e-05
3.671e-05
3.77734e-05
3.89518e-05
4.02097e-05
4.1515e-05
4.28372e-05
4.41493e-05
4.54273e-05
4.66474e-05
4.77884e-05
4.88301e-05
4.97554e-05
5.05479e-05
5.11948e-05
5.16828e-05
5.20077e-05
5.21786e-05
5.2212e-05
5.21181e-05
5.1912e-05
5.16055e-05
5.12099e-05
5.07391e-05
5.02035e-05
4.96182e-05
4.89769e-05
4.83429e-05
4.7664e-05
4.69412e-05
4.62077e-05
4.54661e-05
4.47281e-05
4.39772e-05
4.32677e-05
4.23624e-05
4.21798e-05
2.85725e-05
2.86244e-05
2.88377e-05
2.92259e-05
2.98068e-05
3.05577e-05
3.14361e-05
3.24052e-05
3.3435e-05
3.44991e-05
3.55725e-05
3.66335e-05
3.76623e-05
3.86406e-05
3.95515e-05
4.038e-05
4.11127e-05
4.17378e-05
4.22458e-05
4.26277e-05
4.28801e-05
4.30117e-05
4.30364e-05
4.29631e-05
4.28026e-05
4.25647e-05
4.22589e-05
4.18954e-05
4.14836e-05
4.10322e-05
4.05481e-05
4.00351e-05
3.95279e-05
3.90045e-05
3.84087e-05
3.78419e-05
3.7281e-05
3.67043e-05
3.61595e-05
3.54563e-05
3.53649e-05
2.38328e-05
2.38758e-05
2.40566e-05
2.43873e-05
2.48782e-05
2.55078e-05
2.62398e-05
2.70429e-05
2.78921e-05
2.87654e-05
2.96422e-05
3.0505e-05
3.1338e-05
3.21266e-05
3.28577e-05
3.35199e-05
3.41029e-05
3.45984e-05
3.49992e-05
3.52994e-05
3.5496e-05
3.55967e-05
3.56149e-05
3.55565e-05
3.54312e-05
3.52467e-05
3.501e-05
3.4729e-05
3.44112e-05
3.40627e-05
3.36909e-05
3.32895e-05
3.29006e-05
3.24888e-05
3.20325e-05
3.15975e-05
3.11607e-05
3.07094e-05
3.02836e-05
2.97213e-05
2.96753e-05
1.99066e-05
1.99454e-05
2.01032e-05
2.03907e-05
2.08114e-05
2.13445e-05
2.19596e-05
2.26302e-05
2.33354e-05
2.40566e-05
2.47772e-05
2.54829e-05
2.61611e-05
2.68003e-05
2.73904e-05
2.79224e-05
2.83889e-05
2.87835e-05
2.9101e-05
2.93379e-05
2.94919e-05
2.9571e-05
2.95864e-05
2.95429e-05
2.9447e-05
2.93045e-05
2.91217e-05
2.89049e-05
2.86599e-05
2.83905e-05
2.81029e-05
2.77918e-05
2.74908e-05
2.71698e-05
2.68161e-05
2.64759e-05
2.61313e-05
2.5774e-05
2.54378e-05
2.49853e-05
2.49566e-05
1.66434e-05
1.66811e-05
1.6823e-05
1.70777e-05
1.74424e-05
1.78981e-05
1.84192e-05
1.89832e-05
1.95726e-05
2.0172e-05
2.07678e-05
2.13484e-05
2.19038e-05
2.24249e-05
2.29039e-05
2.33339e-05
2.37096e-05
2.40261e-05
2.42801e-05
2.44685e-05
2.45904e-05
2.46517e-05
2.46631e-05
2.46281e-05
2.45518e-05
2.44391e-05
2.42952e-05
2.41244e-05
2.39318e-05
2.37208e-05
2.34962e-05
2.32523e-05
2.30167e-05
2.27615e-05
2.24961e-05
2.22233e-05
2.1949e-05
2.16689e-05
2.14052e-05
2.10508e-05
2.10175e-05
1.39239e-05
1.39623e-05
1.40932e-05
1.4322e-05
1.46418e-05
1.50348e-05
1.54794e-05
1.59569e-05
1.64524e-05
1.69534e-05
1.74489e-05
1.79295e-05
1.8387e-05
1.88144e-05
1.92057e-05
1.95558e-05
1.98605e-05
2.01166e-05
2.03217e-05
2.04745e-05
2.05734e-05
2.06243e-05
2.06365e-05
2.06124e-05
2.05561e-05
2.04715e-05
2.03623e-05
2.02322e-05
2.00852e-05
1.99227e-05
1.97478e-05
1.95615e-05
1.93693e-05
1.91734e-05
1.89771e-05
1.87532e-05
1.85432e-05
1.8329e-05
1.81226e-05
1.78463e-05
1.78139e-05
1.16523e-05
1.16924e-05
1.18156e-05
1.20238e-05
1.23065e-05
1.26475e-05
1.30292e-05
1.34355e-05
1.38544e-05
1.42754e-05
1.46898e-05
1.50897e-05
1.5469e-05
1.5822e-05
1.61439e-05
1.64309e-05
1.66799e-05
1.68882e-05
1.70546e-05
1.71777e-05
1.7257e-05
1.72968e-05
1.73055e-05
1.72849e-05
1.72382e-05
1.71686e-05
1.70798e-05
1.69754e-05
1.68564e-05
1.67252e-05
1.6584e-05
1.64356e-05
1.628e-05
1.61231e-05
1.59595e-05
1.57892e-05
1.56264e-05
1.54565e-05
1.52892e-05
1.50741e-05
1.50147e-05
9.75161e-06
9.7939e-06
9.91153e-06
1.01025e-05
1.03535e-05
1.06508e-05
1.09791e-05
1.1326e-05
1.16816e-05
1.20373e-05
1.23857e-05
1.27208e-05
1.30371e-05
1.33306e-05
1.35976e-05
1.38353e-05
1.40417e-05
1.42152e-05
1.43549e-05
1.44606e-05
1.45315e-05
1.45704e-05
1.45853e-05
1.45773e-05
1.45487e-05
1.45028e-05
1.4442e-05
1.43666e-05
1.42788e-05
1.41803e-05
1.40729e-05
1.39585e-05
1.38385e-05
1.37112e-05
1.35787e-05
1.34464e-05
1.33176e-05
1.31822e-05
1.30465e-05
1.28774e-05
1.28138e-05
8.15944e-06
8.20368e-06
8.31687e-06
8.49251e-06
8.71613e-06
8.97521e-06
9.2578e-06
9.5541e-06
9.85623e-06
1.01576e-05
1.04521e-05
1.07346e-05
1.10006e-05
1.12466e-05
1.14697e-05
1.16675e-05
1.18384e-05
1.19811e-05
1.20946e-05
1.21785e-05
1.2232e-05
1.22574e-05
1.22619e-05
1.22469e-05
1.22153e-05
1.21702e-05
1.21123e-05
1.20438e-05
1.19664e-05
1.18809e-05
1.179e-05
1.16944e-05
1.15956e-05
1.14862e-05
1.13752e-05
1.12722e-05
1.11693e-05
1.10611e-05
1.0948e-05
1.08256e-05
1.0706e-05
6.82499e-06
6.8704e-06
6.97854e-06
7.1392e-06
7.33741e-06
7.56338e-06
7.80725e-06
8.06084e-06
8.31773e-06
8.57269e-06
8.82126e-06
9.0597e-06
9.28465e-06
9.49311e-06
9.68264e-06
9.85164e-06
9.99926e-06
1.01252e-05
1.02299e-05
1.03136e-05
1.03755e-05
1.04173e-05
1.04438e-05
1.04555e-05
1.04537e-05
1.0438e-05
1.04101e-05
1.03707e-05
1.03211e-05
1.02632e-05
1.01984e-05
1.01262e-05
1.005e-05
9.9591e-06
9.86498e-06
9.78245e-06
9.69523e-06
9.60206e-06
9.50277e-06
9.40055e-06
9.29102e-06
5.70747e-06
5.75333e-06
5.85508e-06
5.99841e-06
6.17046e-06
6.36457e-06
6.57407e-06
6.79245e-06
7.01353e-06
7.23179e-06
7.443e-06
7.64396e-06
7.83271e-06
8.0075e-06
8.16663e-06
8.30793e-06
8.42932e-06
8.52887e-06
8.60534e-06
8.659e-06
8.68832e-06
8.69564e-06
8.68813e-06
8.66808e-06
8.63667e-06
8.5967e-06
8.54964e-06
8.49707e-06
8.44132e-06
8.38351e-06
8.32284e-06
8.25939e-06
8.1951e-06
8.12361e-06
8.04711e-06
7.98536e-06
7.91802e-06
7.84909e-06
7.76962e-06
7.71811e-06
7.51402e-06
4.77264e-06
4.81905e-06
4.91434e-06
5.03984e-06
5.18374e-06
5.34309e-06
5.51544e-06
5.69746e-06
5.88567e-06
6.07536e-06
6.26141e-06
6.43868e-06
6.60363e-06
6.75435e-06
6.8912e-06
7.01573e-06
7.12997e-06
7.23546e-06
7.33258e-06
7.42131e-06
7.49946e-06
7.56664e-06
7.62444e-06
7.66893e-06
7.69925e-06
7.71526e-06
7.71747e-06
7.70784e-06
7.68721e-06
7.65571e-06
7.61421e-06
7.56543e-06
7.50803e-06
7.44971e-06
7.3678e-06
7.28704e-06
7.21777e-06
7.14115e-06
7.05376e-06
6.97894e-06
6.83387e-06
3.98912e-06
4.03428e-06
4.12311e-06
4.23385e-06
4.35526e-06
4.48483e-06
4.62044e-06
4.76076e-06
4.90568e-06
5.05522e-06
5.20852e-06
5.36301e-06
5.51412e-06
5.65557e-06
5.78056e-06
5.88324e-06
5.96005e-06
6.01005e-06
6.03495e-06
6.03838e-06
6.0222e-06
5.99115e-06
5.95052e-06
5.90457e-06
5.85558e-06
5.80532e-06
5.75628e-06
5.70896e-06
5.66318e-06
5.61918e-06
5.5776e-06
5.53869e-06
5.50041e-06
5.46587e-06
5.41709e-06
5.3709e-06
5.34245e-06
5.31164e-06
5.2598e-06
5.26913e-06
4.97485e-06
3.33298e-06
3.36901e-06
3.44197e-06
3.53339e-06
3.63658e-06
3.75049e-06
3.87081e-06
3.99198e-06
4.10948e-06
4.22082e-06
4.32625e-06
4.42872e-06
4.53295e-06
4.64403e-06
4.76586e-06
4.90018e-06
5.04598e-06
5.19984e-06
5.35645e-06
5.50976e-06
5.6549e-06
5.78636e-06
5.90237e-06
5.99864e-06
6.07384e-06
6.12857e-06
6.16329e-06
6.17915e-06
6.17758e-06
6.16053e-06
6.13011e-06
6.08727e-06
6.03229e-06
5.96914e-06
5.8845e-06
5.79276e-06
5.71023e-06
5.61744e-06
5.51108e-06
5.41746e-06
5.24869e-06
2.79364e-06
2.81555e-06
2.85936e-06
2.90933e-06
2.96765e-06
3.04243e-06
3.13774e-06
3.25344e-06
3.38492e-06
3.52327e-06
3.65641e-06
3.77178e-06
3.85894e-06
3.91169e-06
3.92909e-06
3.91513e-06
3.87722e-06
3.82402e-06
3.76339e-06
3.70271e-06
3.64041e-06
3.57825e-06
3.51563e-06
3.45533e-06
3.39837e-06
3.34404e-06
3.29388e-06
3.24912e-06
3.21064e-06
3.17773e-06
3.15101e-06
3.12976e-06
3.11166e-06
3.1001e-06
3.082e-06
3.06896e-06
3.06993e-06
3.07387e-06
3.05634e-06
3.13073e-06
2.79991e-06
2.36527e-06
2.38953e-06
2.42267e-06
2.44183e-06
2.4467e-06
2.44631e-06
2.44863e-06
2.46168e-06
2.49443e-06
2.55677e-06
2.658e-06
2.80484e-06
2.99898e-06
3.23609e-06
3.50613e-06
3.79536e-06
4.08862e-06
4.37143e-06
4.63175e-06
4.85944e-06
5.0545e-06
5.21744e-06
5.34597e-06
5.44178e-06
5.50918e-06
5.55304e-06
5.57621e-06
5.58284e-06
5.57281e-06
5.5495e-06
5.5146e-06
5.4665e-06
5.40566e-06
5.3366e-06
5.25787e-06
5.16741e-06
5.07477e-06
4.97898e-06
4.87258e-06
4.80065e-06
4.54693e-06
2.03095e-06
2.06884e-06
2.12386e-06
2.17002e-06
2.19484e-06
2.19414e-06
2.16648e-06
2.11497e-06
2.04823e-06
1.979e-06
1.92202e-06
1.89095e-06
1.89456e-06
1.93419e-06
2.0035e-06
2.09108e-06
2.18393e-06
2.27079e-06
2.34351e-06
2.39891e-06
2.43257e-06
2.4455e-06
2.43378e-06
2.40736e-06
2.37396e-06
2.33545e-06
2.29275e-06
2.25739e-06
2.24038e-06
2.23377e-06
2.22563e-06
2.214e-06
2.20492e-06
2.19537e-06
2.18267e-06
2.17163e-06
2.15861e-06
2.1367e-06
2.11793e-06
2.05869e-06
2.11606e-06
1.75254e-06
1.74581e-06
1.80482e-06
1.99341e-06
2.33635e-06
2.8019e-06
3.33282e-06
3.87717e-06
4.39704e-06
4.86707e-06
5.27146e-06
5.60153e-06
5.85448e-06
6.03178e-06
6.13839e-06
6.18182e-06
6.17134e-06
6.11678e-06
6.02807e-06
5.91308e-06
5.7808e-06
5.6641e-06
5.54241e-06
5.42269e-06
5.30539e-06
5.18829e-06
5.07357e-06
4.94623e-06
4.80407e-06
4.65698e-06
4.50964e-06
4.36485e-06
4.22068e-06
4.0706e-06
3.9185e-06
3.76469e-06
3.60106e-06
3.42522e-06
3.23355e-06
3.07175e-06
2.9258e-06
18.5854
18.2552
15.1958
12.9415
11.3083
9.94905
8.71544
7.54528
6.41777
5.32686
4.25803
3.22078
2.285
1.51449
0.903683
0.370623
0.0516467
0.00925216
0.0719819
0.236519
0.383284
0.402098
0.313809
0.184899
0.072759
0.0105772
0.00462888
0.00081077
0.000499457
7.03985e-06
1.59463e-07
5.47853e-05
0.000103198
9.97608e-05
9.01015e-05
8.0285e-05
7.51236e-05
6.45347e-05
5.86001e-05
5.72041e-05
5.75918e-05
4.96222e-05
4.72534e-05
4.33773e-05
4.24189e-05
4.79899e-05
4.65809e-05
3.84736e-05
2.9166e-05
2.33503e-05
2.08469e-05
2.12219e-05
1.98195e-05
1.77723e-05
1.70917e-05
1.79596e-05
1.76286e-05
1.89512e-05
1.73763e-05
1.6452e-05
1.57449e-05
1.54238e-05
1.48417e-05
1.4315e-05
1.36179e-05
1.25816e-05
1.12253e-05
9.71053e-06
8.15742e-06
6.59332e-06
5.09509e-06
3.43146e-06
2.59756e-06
1.46571e-06
6.6406
12.6969
13.6551
12.9717
11.9657
10.9738
10.0501
9.16081
8.26947
7.35878
6.4111
5.41029
4.39412
3.44249
2.60642
1.66781
0.640848
0.303145
0.490829
0.72729
0.870544
0.869915
0.743864
0.54624
0.333286
0.153585
0.0414589
0.00300174
0.00218025
7.13862e-05
2.04839e-05
3.87939e-06
2.48325e-05
8.86373e-05
0.000109537
8.85414e-05
7.14668e-05
6.07915e-05
5.84132e-05
5.74847e-05
5.63259e-05
4.74557e-05
4.39072e-05
4.24769e-05
4.16073e-05
4.88776e-05
4.36494e-05
3.72793e-05
3.01887e-05
2.54264e-05
2.17046e-05
2.0203e-05
1.88725e-05
1.88429e-05
1.99717e-05
2.17545e-05
2.03978e-05
2.05045e-05
1.82472e-05
1.70015e-05
1.61975e-05
1.58053e-05
1.50338e-05
1.43398e-05
1.35301e-05
1.23751e-05
1.09197e-05
9.32081e-06
7.72985e-06
6.14896e-06
4.70031e-06
3.19202e-06
2.51033e-06
1.61836e-06
5.92901
2.91927
4.52267
6.38797
7.43171
7.9049
8.08225
8.08129
7.92872
7.63484
7.20788
6.6412
5.94492
5.17976
4.45011
3.5846
2.25151
1.29132
1.29134
1.4733
1.5125
1.44265
1.28438
1.05502
0.784199
0.509264
0.269479
0.101429
0.0186493
0.00247052
0.000312266
0.000506524
2.99084e-05
1.04013e-05
4.07626e-05
8.33742e-05
8.00587e-05
6.40779e-05
5.74339e-05
5.49215e-05
5.30333e-05
4.66028e-05
4.27639e-05
4.25731e-05
4.10003e-05
3.78338e-05
3.50921e-05
3.20475e-05
2.82543e-05
2.554e-05
2.23096e-05
2.04729e-05
1.94586e-05
1.9375e-05
2.04191e-05
2.16422e-05
2.16901e-05
2.05085e-05
1.90274e-05
1.76326e-05
1.65984e-05
1.60347e-05
1.51389e-05
1.43137e-05
1.33917e-05
1.21778e-05
1.06912e-05
9.04082e-06
7.41457e-06
5.81833e-06
4.42783e-06
3.05584e-06
2.50978e-06
1.76351e-06
9.86543
8.44122
5.97325
3.53294
1.89976
1.94944
2.89822
3.86988
4.67834
5.28437
5.68822
5.8905
5.88618
5.68853
5.38796
4.95348
4.02734
2.85639
2.45589
2.52866
2.45019
2.23916
1.98603
1.7049
1.39403
1.06287
0.732541
0.433341
0.199886
0.0596124
0.00606113
0.00154406
0.000340864
1.29615e-05
9.21722e-06
2.55882e-06
3.98843e-05
6.66165e-05
6.83505e-05
5.81965e-05
5.04179e-05
4.50805e-05
4.29732e-05
4.34329e-05
4.14094e-05
3.38268e-05
2.89132e-05
2.56402e-05
2.36556e-05
2.31983e-05
2.19225e-05
2.09774e-05
2.03633e-05
1.97157e-05
1.97215e-05
1.97069e-05
2.0383e-05
2.04469e-05
1.95319e-05
1.82298e-05
1.69435e-05
1.61267e-05
1.51161e-05
1.41832e-05
1.31896e-05
1.19698e-05
1.05198e-05
8.88734e-06
7.26157e-06
5.66531e-06
4.33606e-06
3.06543e-06
2.58936e-06
1.84007e-06
10.801
10.6764
9.90211
8.74474
7.20729
5.52848
3.88796
2.37556
1.15067
1.00026
1.85476
2.75474
3.52565
4.10727
4.49534
4.6993
4.539
3.97802
3.57861
3.59974
3.53663
3.23922
2.86039
2.48535
2.11999
1.75216
1.37744
1.00423
0.653235
0.356303
0.147074
0.0370032
0.00278473
0.00103976
4.17817e-05
1.03675e-05
3.16796e-06
2.468e-06
3.02314e-05
5.61276e-05
5.86736e-05
5.08051e-05
4.49146e-05
4.3063e-05
4.05153e-05
3.34379e-05
2.67474e-05
2.23294e-05
2.08156e-05
2.10858e-05
2.06638e-05
2.04225e-05
2.07346e-05
2.07626e-05
2.07916e-05
2.00949e-05
1.98055e-05
1.99142e-05
1.95592e-05
1.86328e-05
1.72661e-05
1.61642e-05
1.49811e-05
1.39225e-05
1.28815e-05
1.16954e-05
1.03319e-05
8.78702e-06
7.21831e-06
5.66027e-06
4.39786e-06
3.20921e-06
2.75485e-06
1.88075e-06
10.0072
9.6913
9.35274
9.10855
8.77935
8.25491
7.5187
6.5771
5.46551
4.25383
3.0176
1.81817
0.761207
0.730706
1.57341
2.35223
2.95411
3.35487
3.58789
3.88469
4.11874
4.03101
3.6964
3.28466
2.87761
2.48713
2.10222
1.71329
1.3203
0.9365
0.587423
0.306181
0.120283
0.0288367
0.00187282
0.000489616
0.00103188
8.78042e-06
3.25779e-06
7.96471e-08
1.74796e-05
4.22835e-05
5.30997e-05
5.01337e-05
4.21299e-05
3.30485e-05
2.57661e-05
2.11893e-05
1.98195e-05
2.03613e-05
2.04902e-05
2.07536e-05
2.15147e-05
2.19002e-05
2.20842e-05
2.11761e-05
2.02297e-05
1.97061e-05
1.94028e-05
1.88561e-05
1.76542e-05
1.63682e-05
1.49274e-05
1.36396e-05
1.2498e-05
1.13429e-05
1.00909e-05
8.68915e-06
7.23135e-06
5.75297e-06
4.57245e-06
3.46185e-06
3.01659e-06
1.96581e-06
5.99167
5.57128
5.28229
5.24628
5.37737
5.61227
5.87906
6.09167
6.16123
6.02383
5.65122
5.05056
4.24816
3.29327
2.26732
1.27519
0.421254
0.721947
1.58663
2.40685
3.16059
3.66879
3.80416
3.6576
3.37822
3.05673
2.7244
2.38295
2.02621
1.65268
1.26904
0.893831
0.556451
0.289359
0.115433
0.0297175
0.00333018
0.000398249
1.85774e-06
1.63932e-05
1.80499e-06
4.20324e-06
1.68793e-05
3.31531e-05
4.38598e-05
3.84622e-05
2.92484e-05
2.26716e-05
2.0013e-05
2.01179e-05
2.07956e-05
2.1666e-05
2.25766e-05
2.27727e-05
2.27357e-05
2.17782e-05
2.07458e-05
1.98257e-05
1.92737e-05
1.89504e-05
1.81061e-05
1.68817e-05
1.52313e-05
1.36168e-05
1.22314e-05
1.10057e-05
9.82484e-06
8.58374e-06
7.27497e-06
5.90718e-06
4.81784e-06
3.78202e-06
3.34849e-06
2.12634e-06
1.3281
1.19136
1.08614
1.06301
1.10617
1.2193
1.42021
1.71919
2.11423
2.58565
3.08996
3.56073
3.91744
4.08014
3.99542
3.67458
3.16076
2.45618
1.54954
0.594109
0.554008
1.40524
2.17437
2.6892
2.92463
2.95467
2.86216
2.69834
2.48514
2.22934
1.93232
1.59939
1.24334
0.886514
0.560966
0.299941
0.125673
0.0357708
0.00503822
0.00035294
0.00116269
0.000341455
1.55379e-06
3.03146e-06
1.07404e-05
2.00681e-05
2.9018e-05
2.8512e-05
2.48048e-05
2.22012e-05
2.12271e-05
2.18883e-05
2.32216e-05
2.37122e-05
2.34818e-05
2.22333e-05
2.096e-05
1.97912e-05
1.8972e-05
1.87295e-05
1.83171e-05
1.74699e-05
1.59004e-05
1.40704e-05
1.23725e-05
1.09214e-05
9.67403e-06
8.52209e-06
7.35287e-06
6.10798e-06
5.10834e-06
4.13905e-06
3.72067e-06
2.35354e-06
0.0558688
0.043005
0.032689
0.0278826
0.0266054
0.0281817
0.0348976
0.0507099
0.0826105
0.142353
0.247927
0.422231
0.682991
1.03556
1.45983
1.91084
2.32734
2.62718
2.69801
2.45935
1.97216
1.36975
0.714532
0.30841
0.854642
1.42899
1.84947
2.10795
2.23179
2.25047
2.18225
2.03764
1.82386
1.55066
1.23565
0.904479
0.590519
0.330004
0.148455
0.0483893
0.009079
0.000296818
0.00126448
0.00062499
2.2523e-05
1.74219e-06
3.43118e-07
7.29862e-06
1.63528e-05
2.32698e-05
2.52389e-05
2.52258e-05
2.49142e-05
2.43882e-05
2.38402e-05
2.25911e-05
2.12009e-05
1.98291e-05
1.86691e-05
1.82063e-05
1.79827e-05
1.76049e-05
1.64682e-05
1.47907e-05
1.29841e-05
1.13092e-05
9.87364e-06
8.66292e-06
7.53561e-06
6.37346e-06
5.44366e-06
4.53063e-06
4.1315e-06
2.64337e-06
0.00228977
0.0015611
0.00103218
0.000826532
4.0501e-05
0.000128681
3.5933e-05
0.0011686
0.00183875
0.00343928
0.0031765
0.00378951
0.0054313
0.0192582