/*--------------------------------*- C++ -*----------------------------------*\
| =========                 |                                                 |
| \\      /  F ield         | OpenFOAM: The Open Source CFD Toolbox           |
|  \\    /   O peration     | Version:  2312                                  |
|   \\  /    A nd           | Website:  www.openfoam.com                      |
|    \\/     M anipulation  |                                                 |
\*---------------------------------------------------------------------------*/
FoamFile
{
    version     2.0;
    format      ascii;
    arch        "LSB;label=32;scalar=64";
    class       volSymmTensorField;
    location    "100";
    object      turbulenceProperties:devReff;
}
// * * * * * * * * * * * * * * * * * * * * * * * * * * * * * * * * * * * * * //

dimensions      [0 2 -2 0 0 0 0];

internalField   nonuniform List<symmTensor> 
11040
(
(0.133814 0.260659 7.9308e-21 -0.159384 5.93394e-20 0.0255704)
(0.612147 0.300886 -7.81228e-20 -0.701807 7.59932e-19 0.0896591)
(1.1961 0.0164812 8.98665e-19 -1.31041 8.67788e-19 0.114307)
(1.74962 -0.48984 1.98287e-19 -1.84321 -1.13083e-18 0.0935898)
(2.13186 -1.10785 -2.70119e-20 -2.18035 -4.41089e-20 0.0484927)
(3.70269 -2.85906 -1.37668e-18 -3.70544 -8.3062e-18 0.0027558)
(4.14051 -4.62355 -3.03942e-18 -4.02007 -5.98645e-17 -0.120446)
(3.11527 -5.26394 3.99352e-17 -2.80964 -9.9808e-17 -0.305634)
(2.75128 -6.20909 1.81327e-17 -2.33522 6.52453e-17 -0.416055)
(2.64687 -6.90497 -7.76518e-18 -2.22199 3.25288e-17 -0.424883)
(2.61341 -7.64107 -7.87881e-18 -2.2959 3.53125e-17 -0.317518)
(2.59982 -8.52975 -1.69842e-17 -2.39408 6.0462e-18 -0.205734)
(2.52196 -9.4414 -5.78605e-18 -2.38173 -1.1605e-17 -0.140238)
(2.33369 -10.2241 -1.70513e-18 -2.22703 -7.68167e-18 -0.106665)
(2.0444 -10.825 2.06008e-18 -1.96021 -1.38609e-18 -0.0841991)
(1.68367 -11.2596 -6.44646e-20 -1.61801 -2.48469e-18 -0.0656555)
(1.2763 -11.5464 2.69555e-18 -1.22565 -2.03597e-18 -0.0506447)
(0.841767 -11.6861 -1.47079e-20 -0.802127 3.38019e-19 -0.0396407)
(0.394445 -11.6643 -1.15808e-18 -0.362634 -3.81916e-19 -0.0318109)
(-0.0438999 -11.4701 -2.27621e-19 0.0715625 -3.57916e-19 -0.0276626)
(-0.458492 -11.0703 4.58854e-19 0.483687 -8.42187e-19 -0.0251953)
(-0.79732 -10.5293 2.05772e-18 0.822438 2.15011e-18 -0.0251185)
(-1.03047 -9.9738 2.34198e-19 1.05698 1.60843e-18 -0.026512)
(-1.20332 -9.4582 1.44675e-19 1.22735 9.69613e-18 -0.0240228)
(-1.33985 -8.97882 -4.02304e-18 1.3609 -2.79074e-18 -0.0210475)
(-1.44127 -8.49973 2.74522e-18 1.46074 -3.20363e-18 -0.0194672)
(-1.51216 -8.01438 -4.45057e-19 1.53035 -4.86365e-18 -0.0181894)
(-1.55465 -7.52166 4.91395e-19 1.57176 9.91253e-20 -0.0171044)
(-1.57102 -7.02049 1.62836e-19 1.58723 -1.8429e-18 -0.01621)
(-1.56223 -6.509 3.26394e-18 1.57775 1.57714e-18 -0.0155174)
(-1.52943 -5.9859 3.13031e-19 1.54442 4.62487e-18 -0.0149937)
(-1.47296 -5.44948 5.07998e-20 1.48751 -2.43483e-18 -0.0145491)
(-1.39304 -4.89932 4.74739e-18 1.40722 6.25599e-18 -0.0141758)
(-1.28974 -4.33374 -6.26143e-19 1.30351 -6.35186e-20 -0.0137704)
(-1.16366 -3.7528 3.6393e-18 1.17688 2.36418e-18 -0.0132256)
(-1.01669 -3.16416 -1.24403e-19 1.02934 1.10979e-18 -0.01265)
(-0.852119 -2.57272 -2.26043e-19 0.863511 -1.20374e-20 -0.0113919)
(-0.676722 -2.00169 1.43889e-22 0.687392 4.33956e-24 -0.0106706)
(-0.478083 -1.38534 -1.51151e-21 0.483506 1.25077e-21 -0.00542304)
(-0.250281 -0.821194 -1.27163e-19 0.263835 -2.25169e-21 -0.0135543)
(-0.276671 -0.320203 2.30411e-19 0.284221 -3.10409e-19 -0.00755054)
(0.0264069 -0.035294 1.48488e-21 -0.0184509 2.71805e-22 -0.00795601)
(0.0109357 -0.044874 9.81671e-20 0.0065094 -1.15711e-19 -0.0174451)
(0.0291268 -0.062735 -3.49341e-19 0.00137572 -5.84193e-19 -0.0305025)
(0.177645 -0.141823 -6.99187e-19 -0.12568 -1.12331e-19 -0.0519648)
(0.50829 -0.310478 1.23099e-19 -0.47322 -3.28782e-19 -0.0350703)
(1.2375 -0.859574 -2.87282e-18 -1.24649 -1.68504e-18 0.00899381)
(2.34271 -2.01487 -8.71006e-18 -2.44731 1.42812e-17 0.104601)
(3.34131 -3.45345 -2.18132e-17 -3.64327 8.02257e-17 0.301957)
(3.91918 -4.83278 5.52927e-18 -4.39568 -4.29921e-17 0.476501)
(4.16317 -6.27961 8.71007e-18 -4.68217 -3.604e-17 0.519002)
(4.00192 -7.44657 9.36094e-18 -4.46087 -6.05496e-17 0.458945)
(3.51765 -8.05307 2.49678e-17 -3.88022 -7.53976e-19 0.36257)
(2.89359 -8.09505 1.68896e-18 -3.16768 2.66649e-17 0.27409)
(2.26685 -7.72386 5.61391e-19 -2.47329 2.23526e-17 0.206439)
(1.70021 -7.1132 -6.76214e-18 -1.85618 7.24611e-19 0.155973)
(1.21945 -6.40801 -2.3345e-18 -1.33582 3.10281e-18 0.116373)
(0.83173 -5.70862 -2.09146e-18 -0.916265 2.26016e-19 0.0845351)
(0.530357 -5.06696 7.69849e-19 -0.590244 3.27667e-18 0.0598863)
(0.300692 -4.50042 -8.97271e-19 -0.343615 1.23744e-18 0.0429234)
(0.126458 -4.00468 3.71853e-19 -0.160253 3.86215e-19 0.0337947)
(-0.00581049 -3.61448 -2.06759e-18 -0.0261995 1.71648e-18 0.03201)
(-0.0990494 -3.31901 -2.57385e-18 0.0645728 -5.60731e-18 0.0344766)
(-0.163229 -3.0815 4.03197e-18 0.125726 -3.56873e-19 0.0375037)
(-0.215789 -2.86653 5.2715e-18 0.177702 -1.21189e-17 0.0380877)
(-0.2571 -2.68053 4.05531e-18 0.220619 5.46181e-18 0.0364809)
(-0.286718 -2.52083 -5.13235e-18 0.252241 2.48624e-18 0.034477)
(-0.308816 -2.38288 1.27311e-18 0.275847 7.27154e-18 0.0329689)
(-0.325301 -2.26321 -4.51436e-19 0.293564 -8.14175e-20 0.0317369)
(-0.337555 -2.15967 -4.87192e-18 0.306836 1.91788e-18 0.0307183)
(-0.346429 -2.07104 -4.38862e-18 0.316446 -7.11872e-18 0.0299832)
(-0.352657 -1.99574 -5.4966e-18 0.323162 -6.32723e-18 0.0294952)
(-0.356607 -1.93247 -8.33524e-18 0.327332 1.33122e-19 0.0292753)
(-0.35835 -1.8794 -7.71759e-18 0.329097 -1.42847e-17 0.0292528)
(-0.357785 -1.83474 8.73196e-19 0.328355 2.08209e-18 0.0294296)
(-0.355122 -1.79652 4.12254e-20 0.325408 -6.70899e-18 0.0297137)
(-0.349374 -1.76166 -6.79318e-18 0.319772 -3.26387e-18 0.0296024)
(-0.34318 -1.72672 2.93302e-19 0.313465 2.68716e-20 0.0297144)
(-0.327144 -1.68186 5.55435e-20 0.300816 3.06229e-19 0.0263278)
(-0.330634 -1.62179 -2.59103e-22 0.300373 -1.34365e-21 0.0302609)
(-0.247362 -1.47937 4.03861e-19 0.25732 -4.70543e-19 -0.00995736)
(-0.492304 -2.05899 -3.21043e-18 0.27492 4.36513e-18 0.217384)
(0.0109361 -0.021881 -1.23326e-20 -0.0113251 -3.50515e-20 0.000388999)
(-0.0112905 -0.0141903 -1.16818e-19 0.00747519 -1.19675e-19 0.00381534)
(-0.016853 -0.00151397 5.62317e-20 0.0117512 1.9683e-19 0.0051018)
(-0.0130421 0.00288171 9.09935e-20 0.00909111 8.08387e-20 0.00395097)
(-0.00501502 4.58114e-05 -1.9802e-19 0.00268767 -1.09327e-19 0.00232736)
(0.0195385 -0.0194975 -9.80948e-20 -0.0197196 3.14169e-19 0.000181075)
(0.100534 -0.100232 5.29665e-19 -0.097685 7.88761e-19 -0.00284932)
(0.24094 -0.276855 5.67408e-19 -0.236476 -1.16194e-18 -0.00446416)
(0.376583 -0.511506 -9.59244e-19 -0.372284 1.3142e-18 -0.00429947)
(0.481328 -0.77679 2.27748e-19 -0.474728 -5.99965e-19 -0.00659921)
(0.576973 -1.10292 -1.11538e-18 -0.565465 2.23013e-18 -0.0115081)
(0.684791 -1.53333 -5.72004e-18 -0.670199 -6.81947e-18 -0.0145925)
(0.804879 -2.08807 1.64692e-18 -0.790715 -3.53958e-18 -0.0141639)
(0.915329 -2.74863 5.6005e-19 -0.903504 -2.06375e-18 -0.0118248)
(0.983096 -3.45665 2.69053e-18 -0.974461 3.03409e-18 -0.00863452)
(0.979026 -4.12352 2.80905e-18 -0.975142 6.47877e-19 -0.00388362)
(0.890878 -4.65665 1.05172e-18 -0.893542 5.29521e-19 0.00266363)
(0.728746 -4.98702 4.65173e-18 -0.738158 3.05835e-19 0.00941195)
(0.51998 -5.09033 1.21593e-18 -0.534533 -4.04633e-19 0.014553)
(0.299538 -4.98993 -9.15103e-19 -0.315294 -1.12219e-18 0.0157559)
(0.0954168 -4.73145 3.72442e-18 -0.109277 1.98125e-18 0.0138598)
(-0.0674975 -4.41345 1.6638e-18 0.0597227 2.18209e-18 0.0077748)
(-0.183339 -4.11095 -3.26582e-18 0.183955 -3.73044e-18 -0.000615234)
(-0.267163 -3.82281 -6.83636e-18 0.273155 -9.32087e-18 -0.00599199)
(-0.326166 -3.56925 -7.17822e-18 0.335088 -6.45177e-18 -0.0089221)
(-0.366573 -3.34909 8.01026e-18 0.377534 5.20841e-19 -0.0109616)
(-0.395491 -3.15646 -5.71963e-19 0.407262 1.81802e-19 -0.0117705)
(-0.415832 -2.98728 2.62214e-19 0.427605 -2.12135e-18 -0.0117727)
(-0.429249 -2.83847 5.89952e-18 0.440481 6.09176e-18 -0.0112325)
(-0.436601 -2.70715 -5.30613e-18 0.447018 7.49538e-18 -0.0104174)
(-0.43861 -2.59074 1.22194e-17 0.448109 1.53755e-18 -0.00949928)
(-0.435749 -2.48715 -1.14307e-18 0.444371 1.15891e-17 -0.008622)
(-0.428383 -2.3951 1.28e-18 0.436284 5.24134e-18 -0.00790183)
(-0.416639 -2.31318 1.05838e-17 0.42389 -9.3812e-19 -0.00725165)
(-0.401371 -2.24138 -9.22594e-18 0.407874 7.1314e-19 -0.00650326)
(-0.382426 -2.17982 -9.04893e-19 0.388478 2.67931e-18 -0.00605186)
(-0.365195 -2.1303 2.24589e-19 0.369957 4.21502e-21 -0.00476173)
(-0.337653 -2.08722 7.9596e-18 0.344453 -9.50746e-19 -0.00680038)
(-0.346906 -2.06027 -2.68484e-19 0.344601 -3.23992e-21 0.00230489)
(-0.240367 -1.96297 6.07155e-18 0.279419 -9.14636e-19 -0.0390511)
(-0.364635 -2.13663 2.67667e-18 0.3291 -5.21262e-18 0.0355344)
(0.00805575 -0.0152083 1.02858e-20 -0.00823371 2.3866e-20 0.000177955)
(-0.00347227 -0.0155973 1.76572e-20 0.00377839 7.05638e-20 -0.000306119)
(-0.0101323 -0.00940346 -5.82436e-20 0.0105875 -8.78732e-20 -0.00045523)
(-0.0113549 -0.00311786 -6.32798e-20 0.0119772 -4.05634e-20 -0.00062233)
(-0.0100139 0.000561985 8.8399e-20 0.0107056 7.01883e-20 -0.000691603)
(-0.00736947 0.00200838 7.84761e-20 0.00796501 5.255e-20 -0.000595545)
(-0.00446019 0.00202209 -1.14766e-20 0.0049535 -3.93309e-20 -0.000493315)
(-0.00220431 0.00149291 2.91667e-21 0.00268037 -4.20984e-21 -0.000476063)
(-0.000381135 0.000690532 -1.04524e-20 0.000820534 1.381e-20 -0.000439398)
(0.00108557 -0.000462325 -7.28197e-20 -0.000707736 7.72182e-21 -0.000377831)
(0.00238236 -0.00226867 8.9674e-21 -0.00207032 3.09962e-20 -0.000312044)
(0.00419338 -0.00582163 8.50722e-20 -0.00394682 1.30403e-19 -0.000246558)
(0.00851611 -0.0156123 -2.24172e-21 -0.00832904 -2.99409e-21 -0.000187069)
(0.0183322 -0.0420429 3.95858e-19 -0.0182138 -4.26458e-20 -0.000118448)
(0.0350168 -0.0976185 -6.84292e-20 -0.0349752 -1.81679e-19 -4.15629e-05)
(0.0604712 -0.202631 -5.00441e-19 -0.0605817 -6.32784e-19 0.000110495)
(0.0954479 -0.385391 -1.1701e-18 -0.0958893 -2.38402e-20 0.000441368)
(0.135268 -0.668105 2.61701e-19 -0.136139 -5.98905e-19 0.000870073)
(0.169071 -1.05467 -8.14274e-19 -0.170362 -5.77079e-19 0.00129171)
(0.182835 -1.52145 -4.28693e-19 -0.184386 3.01797e-19 0.00155106)
(0.163186 -2.0236 -7.36071e-19 -0.165598 -1.11001e-18 0.00241238)
(0.106661 -2.47619 -2.35096e-18 -0.110063 -1.01244e-19 0.00340134)
(0.0278346 -2.81474 -7.41911e-20 -0.0311387 1.21338e-18 0.00330411)
(-0.0602576 -3.02793 -5.93228e-18 0.0557046 1.27406e-18 0.00455296)
(-0.145272 -3.13843 -1.95077e-18 0.138937 6.88136e-18 0.00633532)
(-0.220244 -3.17668 -1.39574e-17 0.213152 -1.1476e-18 0.00709169)
(-0.283024 -3.16477 1.57153e-18 0.275953 1.36701e-18 0.00707174)
(-0.333165 -3.12069 -6.68427e-18 0.326784 1.99856e-18 0.00638137)
(-0.37133 -3.05817 7.89806e-18 0.36611 -4.30456e-18 0.00522002)
(-0.398616 -2.98712 1.22415e-17 0.394892 -7.78862e-19 0.00372442)
(-0.416363 -2.91411 -5.97788e-18 0.414178 -4.30474e-18 0.00218581)
(-0.425938 -2.84347 2.51967e-17 0.425231 -3.82582e-18 0.000706757)
(-0.428302 -2.7779 -9.63302e-19 0.428983 -1.14701e-19 -0.000681404)
(-0.424218 -2.71855 1.21471e-18 0.426118 -3.22805e-18 -0.00189995)
(-0.414497 -2.66626 5.60525e-19 0.417144 2.47691e-18 -0.00264674)
(-0.398781 -2.62084 -2.21141e-18 0.402054 1.11456e-18 -0.00327285)
(-0.382418 -2.58392 1.8327e-19 0.384896 -3.56346e-20 -0.00247809)
(-0.35271 -2.5497 1.90767e-18 0.358051 -9.14623e-19 -0.00534157)
(-0.359709 -2.5323 -7.29892e-20 0.355114 6.73355e-21 0.00459443)
(-0.240118 -2.46161 2.1289e-18 0.277944 7.62711e-19 -0.0378257)
(-0.330112 -2.56106 1.52997e-19 0.25553 9.16045e-19 0.0745822)
(0.00601322 -0.0103014 8.09625e-22 -0.00601272 -1.54571e-23 -4.94204e-07)
(-0.00119638 -0.0114798 2.06038e-20 0.00130189 1.74068e-20 -0.000105515)
(-0.0065228 -0.00833946 9.47706e-20 0.00657246 1.14066e-19 -4.96642e-05)
(-0.00833451 -0.00383504 1.10195e-19 0.00833044 7.69913e-20 4.06676e-06)
(-0.00783384 -0.000181928 -1.44138e-19 0.00776504 -1.08587e-19 6.88004e-05)
(-0.00660795 0.002123 8.18926e-20 0.00647404 1.26332e-20 0.000133916)
(-0.00511908 0.00333717 -7.93896e-21 0.00496008 6.0594e-21 0.000159003)
(-0.00354449 0.00374371 7.53405e-21 0.00339982 -6.54065e-21 0.000144669)
(-0.00218374 0.00368321 4.70222e-20 0.00206277 2.34604e-20 0.000120974)
(-0.00119749 0.00335769 7.43657e-20 0.00111318 2.75263e-20 8.43099e-05)
(-0.000616817 0.00291639 2.96398e-20 0.000575974 -2.69764e-21 4.08429e-05)
(-0.00034562 0.00251008 -4.96283e-22 0.000336671 -1.46034e-20 8.9488e-06)
(-0.000220786 0.00218867 -3.49077e-21 0.000230299 7.9937e-22 -9.51359e-06)
(-0.000131268 0.00191654 -3.1311e-20 0.000154138 -2.31053e-20 -2.28698e-05)
(-4.1667e-05 0.00164668 5.7973e-21 7.53944e-05 1.33126e-20 -3.37274e-05)
(5.16927e-05 0.0013347 -2.34728e-20 -1.14505e-05 3.78963e-21 -4.02423e-05)
(0.000146271 0.00094383 1.21201e-20 -0.000104395 1.19128e-20 -4.18754e-05)
(0.000253845 0.00049078 -7.80194e-22 -0.000210969 -3.2267e-21 -4.28766e-05)
(0.00151701 -0.00064599 -2.7914e-22 -0.00134735 1.04533e-20 -0.000169659)
(0.00646277 -0.0143989 4.96448e-21 -0.00596444 2.10403e-20 -0.000498331)
(0.0143527 -0.0589193 1.65429e-19 -0.0136344 7.27015e-20 -0.000718219)
(0.0233986 -0.15389 5.19106e-19 -0.0227467 1.77189e-19 -0.000651853)
(0.0287701 -0.302478 -1.51802e-19 -0.0281687 -4.7785e-20 -0.000601444)
(0.0264864 -0.496089 -1.74765e-18 -0.0259787 6.48192e-19 -0.000507712)
(0.0150247 -0.723436 5.35376e-18 -0.014616 -6.07517e-19 -0.000408657)
(-0.00570251 -0.971188 3.85457e-18 0.00632467 2.43988e-18 -0.000622153)
(-0.0351609 -1.22432 2.90086e-18 0.0360056 -7.76641e-19 -0.000844687)
(-0.0717202 -1.46976 4.2547e-18 0.0725953 1.04565e-18 -0.000875155)
(-0.113005 -1.69795 -5.2385e-18 0.113627 -1.4382e-18 -0.000622391)
(-0.156298 -1.903 -9.90763e-18 0.156436 -1.33157e-18 -0.000137781)
(-0.198907 -2.08228 2.45701e-19 0.198294 1.2196e-18 0.000612612)
(-0.238515 -2.23588 -1.09302e-17 0.236995 -3.88221e-18 0.0015199)
(-0.272976 -2.36563 8.52944e-19 0.270605 -3.55174e-20 0.00237096)
(-0.300852 -2.47478 1.71724e-18 0.297882 -1.069e-18 0.00297051)
(-0.321045 -2.56661 2.36404e-19 0.317681 7.1857e-20 0.00336419)
(-0.331877 -2.64313 1.00178e-17 0.328674 -1.024e-18 0.00320238)
(-0.336666 -2.70752 -4.04035e-19 0.332811 -4.84132e-19 0.00385435)
(-0.324262 -2.75723 -9.29789e-18 0.32393 1.06322e-18 0.000332126)
(-0.339249 -2.80501 8.72735e-20 0.32959 5.34462e-21 0.00965939)
(-0.229371 -2.81226 2.07389e-18 0.263257 1.05472e-19 -0.0338862)
(-0.374023 -2.89796 9.50788e-18 0.290506 -6.4713e-19 0.0835171)
(0.00411898 -0.00696525 3.70924e-23 -0.00417011 -5.26343e-22 5.1136e-05)
(3.5622e-05 -0.0081825 -2.51304e-22 2.897e-06 -3.66797e-21 -3.8519e-05)
(-0.00376692 -0.00702419 -2.47572e-20 0.00374907 -5.23558e-20 1.78506e-05)
(-0.00596863 -0.00433916 -3.88235e-20 0.00589718 -5.08615e-20 7.14511e-05)
(-0.00639743 -0.00155831 9.16543e-20 0.00633999 9.73795e-20 5.74319e-05)
(-0.00581151 0.000564508 -9.111e-20 0.00579414 -6.84127e-20 1.73701e-05)
(-0.00485533 0.00202269 4.80212e-20 0.00485428 2.07977e-20 1.05265e-06)
(-0.0037308 0.00294829 -7.39782e-20 0.00372641 -2.33844e-20 4.3848e-06)
(-0.00253362 0.00335388 -5.20442e-23 0.00252749 -5.77825e-21 6.13182e-06)
(-0.00146342 0.0032719 -5.57012e-20 0.00147183 -5.54267e-20 -8.40737e-06)
(-0.0007067 0.00288993 -3.19717e-20 0.000735516 -1.20175e-20 -2.88166e-05)
(-0.000284573 0.00245514 5.77838e-21 0.000318889 -1.71297e-21 -3.43163e-05)
(-7.95502e-05 0.00210953 1.23054e-20 0.000102577 7.34704e-21 -2.30268e-05)
(3.11163e-05 0.00185995 -2.74839e-20 -2.22894e-05 8.26956e-21 -8.82693e-06)
(0.000103501 0.00165857 5.69087e-20 -0.000102963 -2.73443e-23 -5.38175e-07)
(0.00015011 0.00146841 7.68493e-21 -0.00015289 7.74004e-21 2.78053e-06)
(0.00017992 0.00130362 8.5592e-21 -0.000183821 -6.99002e-21 3.90058e-06)
(0.000200057 0.00115163 -9.01703e-21 -0.000203421 1.74444e-22 3.36391e-06)
(0.000249637 0.00116453 8.6448e-22 -0.000251442 -2.98321e-21 1.8054e-06)
(0.000532987 0.00200324 4.38094e-22 -0.000530738 1.9e-21 -2.24911e-06)
(0.000432057 0.00124566 2.05069e-21 -0.000426591 -1.05439e-21 -5.4653e-06)
(0.000418612 0.000848261 -4.4694e-21 -0.0004121 -3.83962e-21 -6.51173e-06)
(0.000420088 0.000510129 -2.15526e-23 -0.000411993 -1.51301e-21 -8.09444e-06)
(0.00195669 0.000663955 -2.55297e-20 -0.00191939 2.18018e-20 -3.73029e-05)
(0.00492722 -0.00358485 -3.23294e-19 -0.00485363 -1.25837e-19 -7.35874e-05)
(0.00783434 -0.0167712 1.10014e-19 -0.00774572 -9.01831e-20 -8.86183e-05)
(0.0103837 -0.0433061 -4.53427e-19 -0.0102986 -1.16394e-19 -8.50355e-05)
(0.0118783 -0.0884649 -6.81776e-21 -0.011807 -2.97157e-19 -7.13201e-05)
(0.0113776 -0.157335 -2.24844e-19 -0.0112957 2.65598e-19 -8.18501e-05)
(0.00791301 -0.254209 1.56399e-18 -0.00772706 6.53674e-19 -0.00018595)
(0.000666701 -0.382172 -3.01994e-19 -0.000249598 1.48147e-19 -0.000417103)
(-0.0109482 -0.54303 4.3892e-19 0.0117216 9.7e-19 -0.000773406)
(-0.0270771 -0.736898 -1.98931e-19 0.0283205 -2.45597e-19 -0.00124336)
(-0.0476151 -0.963047 -6.39068e-18 0.0494073 1.87302e-19 -0.00179218)
(-0.0719932 -1.21824 8.48981e-19 0.0742509 -4.14927e-19 -0.00225769)
(-0.0984147 -1.49537 -1.77207e-19 0.101081 -2.6855e-19 -0.00266632)
(-0.126835 -1.78462 -9.678e-18 0.128709 1.16301e-18 -0.00187384)
(-0.147485 -2.0744 3.44226e-19 0.150756 3.32433e-19 -0.00327103)
(-0.190928 -2.35657 2.26817e-19 0.184414 2.44255e-20 0.00651431)
(-0.127745 -2.59257 -8.17932e-18 0.15471 8.38011e-19 -0.0269648)
(-0.355764 -2.87697 -7.80132e-18 0.27965 1.55802e-18 0.0761137)
(0.00288999 -0.00480497 -5.14791e-21 -0.00292387 -3.17951e-21 3.38809e-05)
(0.00051954 -0.00574801 2.81447e-20 -0.000492606 2.06392e-20 -2.69341e-05)
(-0.00196352 -0.00555309 -2.98332e-20 0.00198231 -1.67839e-20 -1.87818e-05)
(-0.00393956 -0.00424057 -6.98852e-21 0.0039561 9.80695e-21 -1.65396e-05)
(-0.00491256 -0.00236354 9.0876e-21 0.00494494 -6.86955e-21 -3.23859e-05)
(-0.00494662 -0.000561846 2.69571e-20 0.00499003 2.58727e-20 -4.34068e-05)
(-0.00440492 0.000863301 -2.49319e-20 0.00443969 -3.15512e-20 -3.47638e-05)
(-0.00356859 0.00187197 7.30332e-20 0.00358119 4.3328e-20 -1.25909e-05)
(-0.00258488 0.00246619 2.69723e-20 0.00257412 4.46895e-21 1.0765e-05)
(-0.00160305 0.00263726 -3.93864e-20 0.00157878 7.9542e-21 2.42624e-05)
(-0.000800728 0.0024657 3.3421e-20 0.000775833 6.64091e-21 2.48954e-05)
(-0.00027351 0.00213214 -3.09455e-20 0.000252127 -8.21199e-21 2.13832e-05)
(1.78077e-05 0.00180111 3.02928e-20 -3.88845e-05 1.76836e-20 2.10768e-05)
(0.000174133 0.00153897 -6.98102e-21 -0.000195527 -5.85702e-21 2.13933e-05)
(0.000269248 0.00133962 -4.94094e-20 -0.000287708 -2.81426e-20 1.846e-05)
(0.000334064 0.00118473 1.66976e-21 -0.000347565 9.94124e-21 1.35007e-05)
(0.000379972 0.00106233 -2.17434e-20 -0.000389479 -2.47236e-21 9.50633e-06)
(0.000407888 0.000951225 1.02334e-20 -0.000414805 2.85804e-21 6.9171e-06)
(0.000416013 0.000838768 -1.83246e-20 -0.000421011 -3.69062e-21 4.99762e-06)
(0.000413136 0.000741066 5.30653e-21 -0.000416234 -2.51358e-21 3.09816e-06)
(0.000403407 0.000658578 1.15499e-21 -0.000405272 3.88535e-21 1.86424e-06)
(0.000364127 0.000548769 -3.26276e-21 -0.000365329 -4.98652e-22 1.20173e-06)
(0.000343049 0.000487408 -4.93659e-21 -0.000342898 -8.87988e-22 -1.50165e-07)
(0.000340673 0.000464019 8.40808e-23 -0.000339687 6.47501e-22 -9.85842e-07)
(0.000568185 0.000735118 -7.491e-21 -0.000566536 5.12285e-21 -1.64968e-06)
(0.0014012 0.00166418 2.1511e-20 -0.00139634 4.76076e-23 -4.85706e-06)
(0.000324809 0.000334491 -2.96985e-21 -0.000323455 8.48056e-22 -1.35449e-06)
(0.000315947 0.000255225 -6.9475e-21 -0.000314753 3.55508e-22 -1.1943e-06)
(0.000345439 0.000172824 1.01167e-21 -0.000344743 1.65976e-21 -6.95769e-07)
(0.00126602 9.39833e-05 4.1421e-20 -0.00126659 -7.4809e-21 5.68832e-07)
(0.00371399 -0.00194164 9.32398e-20 -0.0037265 -2.91743e-20 1.25012e-05)
(0.00643669 -0.00888257 2.86852e-19 -0.00648032 -3.9327e-20 4.36248e-05)
(0.0093611 -0.0248539 -4.34222e-19 -0.00945711 4.49109e-20 9.60078e-05)
(0.0121743 -0.0567311 -1.19931e-18 -0.012321 2.67444e-19 0.000146697)
(0.0141856 -0.114488 -1.69962e-18 -0.0143268 1.52274e-19 0.000141219)
(0.0146315 -0.210901 2.41277e-18 -0.0145386 -1.9135e-19 -9.28754e-05)
(0.0120526 -0.360012 3.27457e-18 -0.0116599 -1.95091e-19 -0.000392659)
(0.00907458 -0.577027 4.25601e-18 -0.00695564 -3.61577e-19 -0.00211894)
(-0.00952103 -0.874462 5.35919e-18 0.00858695 -4.59447e-19 0.00093408)
(0.022569 -1.22277 1.41696e-20 -0.00472239 -1.25074e-19 -0.0178466)
(-0.142632 -1.75027 -7.72743e-18 0.100122 2.41934e-19 0.0425095)
(0.00201689 -0.00336482 -2.01455e-21 -0.00204632 -1.58899e-21 2.9426e-05)
(0.000589863 -0.00401842 -1.64273e-20 -0.000579441 -1.23964e-20 -1.0422e-05)
(-0.000955208 -0.00412764 1.84613e-20 0.000960313 1.78589e-20 -5.10476e-06)
(-0.00242089 -0.00357078 2.34815e-20 0.00241773 1.77449e-20 3.15634e-06)
(-0.00344827 -0.00246325 4.44345e-20 0.00344351 2.30894e-20 4.75815e-06)
(-0.00387181 -0.0011487 -4.99444e-20 0.00387081 -4.19645e-20 1.00071e-06)
(-0.00377229 7.53174e-05 -7.96165e-20 0.00377307 -3.31624e-20 -7.78949e-07)
(-0.00331095 0.00105972 -4.4438e-20 0.00330833 -2.79905e-20 2.62315e-06)
(-0.00262588 0.00173975 8.62597e-21 0.00261716 4.4915e-21 8.71595e-06)
(-0.00185105 0.00208313 4.04001e-20 0.00184003 2.83583e-20 1.10149e-05)
(-0.001134 0.00211663 -7.81375e-20 0.00112813 -3.10597e-20 5.86429e-06)
(-0.0005842 0.00194484 1.21632e-20 0.000586448 7.40325e-21 -2.24817e-06)
(-0.000222576 0.00169831 6.67295e-20 0.000229354 5.88618e-21 -6.77784e-06)
(8.95799e-07 0.00146292 -5.14784e-20 6.32967e-06 -1.23668e-20 -7.22547e-06)
(0.000145632 0.00126359 -1.31155e-20 -0.000139045 9.22875e-21 -6.58711e-06)
(0.000247357 0.00109712 6.21302e-20 -0.000241015 9.15485e-21 -6.34243e-06)
(0.000323174 0.000957116 1.31682e-20 -0.000317373 -7.41054e-22 -5.80103e-06)
(0.000383888 0.000839651 -1.10057e-20 -0.000379277 1.64411e-21 -4.61122e-06)
(0.000434466 0.000734842 -9.00147e-21 -0.000431304 2.01815e-21 -3.16169e-06)
(0.00047201 0.000630995 -1.5996e-20 -0.000469922 -1.24199e-21 -2.08786e-06)
(0.000493771 0.000528034 2.78198e-20 -0.000492766 1.30362e-21 -1.00474e-06)
(0.000513965 0.000446077 -9.29859e-21 -0.000514159 -7.02372e-23 1.93869e-07)
(0.000495985 0.000359754 -5.80985e-21 -0.000496183 1.0494e-21 1.98306e-07)
(0.000461973 0.000292742 6.2755e-23 -0.000462088 1.39725e-22 1.15141e-07)
(0.000409921 0.000237111 -4.90668e-21 -0.000410459 -6.49888e-22 5.38004e-07)
(0.000372565 0.000202549 4.65681e-21 -0.000373128 2.86767e-24 5.63407e-07)
(0.000340218 0.00017701 -4.46872e-21 -0.000340414 3.97883e-22 1.96088e-07)
(0.000320039 0.000161198 6.8715e-22 -0.000319893 6.48452e-22 -1.45472e-07)
(0.000313877 0.000153236 7.63096e-21 -0.000313544 -9.17589e-22 -3.32752e-07)
(0.000321173 0.000149749 6.02677e-22 -0.000320685 -1.48626e-21 -4.88797e-07)
(0.000404152 0.000173159 -2.4402e-20 -0.000403429 1.5767e-21 -7.23833e-07)
(0.000305344 0.000110646 -4.67294e-21 -0.000304913 -6.13172e-22 -4.31001e-07)
(0.000296256 7.41066e-05 6.02143e-21 -0.000296352 2.31182e-22 9.58789e-08)
(0.0035543 0.000220286 1.74825e-19 -0.00356677 -6.06342e-21 1.24752e-05)
(0.000285697 -7.22747e-05 1.61784e-21 -0.00028814 1.04363e-21 2.44302e-06)
(0.00166561 -0.00129577 -3.74542e-23 -0.00168701 -3.26949e-21 2.13964e-05)
(0.0046386 -0.00782249 -1.11133e-21 -0.00474459 -7.71147e-21 0.000105996)
(0.00830154 -0.0256372 -5.53966e-21 -0.00839157 -1.86488e-20 9.00294e-05)
(0.0108135 -0.0701467 -9.86151e-19 -0.011654 7.65138e-20 0.00084046)
(0.0220544 -0.150035 1.70746e-20 -0.0194587 -1.83341e-21 -0.00259571)
(0.00053429 -0.3677 2.50476e-18 -0.0112656 -2.47142e-19 0.0107313)
(0.00141127 -0.0023917 1.46183e-21 -0.00143289 9.64073e-22 2.16207e-05)
(0.00051606 -0.00282813 -7.49982e-23 -0.000509885 7.99365e-22 -6.17502e-06)
(-0.000442748 -0.00299048 3.02193e-20 0.000445652 1.66889e-20 -2.90415e-06)
(-0.00143728 -0.00280262 1.58629e-21 0.00143752 -2.52681e-21 -2.44186e-07)
(-0.00229198 -0.00223462 3.6043e-21 0.00229401 -3.88685e-21 -2.03153e-06)
(-0.00283608 -0.00140345 1.12805e-21 0.00284369 9.38644e-21 -7.61727e-06)
(-0.00301517 -0.000488755 3.38975e-20 0.00302775 2.63728e-20 -1.25803e-05)
(-0.00286949 0.000359972 -2.98256e-21 0.00288218 -2.36622e-21 -1.26816e-05)
(-0.00247722 0.00104288 1.10743e-21 0.00248529 1.45169e-20 -8.07072e-06)
(-0.00193428 0.0014953 8.1497e-20 0.00193646 2.15915e-20 -2.1764e-06)
(-0.00135377 0.0016997 6.79055e-21 0.00135292 8.44117e-21 8.44338e-07)
(-0.000839249 0.00169869 -5.92221e-20 0.000838203 -1.46285e-20 1.04622e-06)
(-0.000447032 0.00157598 -9.28322e-21 0.000445676 -1.66017e-20 1.35581e-06)
(-0.000174177 0.00141108 1.51102e-20 0.000171533 1.56858e-20 2.6444e-06)
(1.22704e-05 0.00124734 -1.81004e-20 -1.61537e-05 -8.26182e-21 3.88329e-06)
(0.000143336 0.00109834 -1.56232e-20 -0.000147398 -1.07563e-20 4.06183e-06)
(0.000238701 0.000965864 -2.47918e-20 -0.000242259 -3.4686e-21 3.55769e-06)
(0.000310807 0.000848558 3.55816e-20 -0.000313882 6.55947e-21 3.07463e-06)
(0.000368172 0.000742819 -9.04339e-21 -0.000370954 -7.29062e-22 2.78201e-06)
(0.000415793 0.000644179 3.15276e-22 -0.000418159 3.37004e-21 2.36592e-06)
(0.000455649 0.000549811 -1.15866e-21 -0.000457495 -7.32375e-21 1.8463e-06)
(0.000486461 0.000460065 2.79822e-21 -0.000488035 3.94607e-21 1.574e-06)
(0.000505283 0.0003775 -2.83515e-21 -0.000506291 7.64453e-22 1.00764e-06)
(0.000506963 0.000302095 -6.6882e-22 -0.000507466 -6.70702e-23 5.03311e-07)
(0.000502561 0.000240198 -1.5739e-20 -0.000503176 1.07105e-21 6.15053e-07)
(0.000487746 0.000185441 1.15998e-20 -0.00048849 -2.21257e-22 7.44913e-07)
(0.000473374 0.00013974 -8.69927e-22 -0.000473945 -2.60961e-22 5.7145e-07)
(0.000461179 0.000101784 -5.28184e-21 -0.000461529 7.43486e-22 3.50236e-07)
(0.00043326 6.74971e-05 -9.19762e-21 -0.000433519 -1.22674e-21 2.58732e-07)
(0.000402483 4.00087e-05 -3.25788e-21 -0.000402677 6.96446e-22 1.93785e-07)
(0.000366825 1.85916e-05 1.15017e-20 -0.000366871 9.36761e-22 4.60649e-08)
(0.0003353 3.00182e-06 -3.74923e-21 -0.000335131 1.08508e-21 -1.69442e-07)
(0.000303559 -8.22725e-06 -5.74695e-23 -0.000303205 -8.79038e-23 -3.54124e-07)
(0.000284704 -1.71265e-05 -5.543e-21 -0.000284201 -2.97536e-22 -5.03411e-07)
(0.000278492 -2.72122e-05 1.14055e-20 -0.000278025 -7.83579e-22 -4.67478e-07)
(0.000277265 -4.19324e-05 -1.6835e-21 -0.000276653 2.43223e-23 -6.12086e-07)
(0.000408015 -0.000104719 2.04392e-21 -0.000408798 1.90536e-22 7.82377e-07)
(0.000227346 -9.80012e-05 -2.07256e-20 -0.000226773 1.61243e-21 -5.72717e-07)
(0.000297039 -0.0002709 -7.5219e-22 -0.000305586 1.24874e-22 8.54775e-06)
(0.000844822 -0.00115955 -1.39006e-22 -0.000818516 1.89547e-23 -2.63066e-05)
(0.00421952 -0.014919 3.20863e-19 -0.00487193 -1.21193e-20 0.000652407)
(0.000983642 -0.0017166 -4.63074e-21 -0.000999825 -2.49874e-21 1.61831e-05)
(0.000402401 -0.00200324 4.98843e-21 -0.000399147 2.41926e-21 -3.25362e-06)
(-0.000202258 -0.00213915 5.08882e-22 0.000202902 -2.74253e-21 -6.43873e-07)
(-0.000848957 -0.00209541 -2.32941e-20 0.000847525 -1.39456e-20 1.432e-06)
(-0.00147011 -0.00182725 -1.47529e-21 0.00146866 3.69545e-21 1.44632e-06)
(-0.00196196 -0.00135156 2.69539e-20 0.00196195 1.18896e-20 8.60476e-09)
(-0.00224782 -0.000743882 -1.47669e-21 0.00224986 -9.62752e-21 -2.04542e-06)
(-0.00230412 -0.000101504 -5.18109e-20 0.00230749 -1.7169e-20 -3.36899e-06)
(-0.00214983 0.000487011 8.75303e-20 0.00215236 3.22779e-20 -2.53265e-06)
(-0.00183376 0.000951093 -2.7663e-20 0.00183385 -2.71172e-20 -8.36548e-08)
(-0.00142748 0.00124876 3.46028e-20 0.00142583 1.01483e-20 1.65368e-06)
(-0.0010099 0.00137864 3.52217e-20 0.00100822 1.33708e-20 1.68194e-06)
(-0.000643749 0.00137748 -5.536e-20 0.000642571 -1.28389e-20 1.17796e-06)
(-0.000355724 0.00129977 4.07319e-20 0.000354905 3.64158e-21 8.19037e-07)
(-0.000141171 0.00118972 -5.33412e-20 0.000140479 -4.67776e-21 6.92053e-07)
(1.69536e-05 0.00107197 1.64237e-20 -1.73073e-05 8.44777e-21 3.53758e-07)
(0.000134596 0.000957433 1.04894e-20 -0.000134374 1.97818e-21 -2.22977e-07)
(0.000223659 0.000850259 -1.06602e-21 -0.000222989 1.67734e-21 -6.70428e-07)
(0.000292956 0.000750854 1.08165e-23 -0.000292168 -7.60371e-23 -7.87871e-07)
(0.000348483 0.000657249 -1.09143e-21 -0.000347704 -1.77039e-21 -7.79836e-07)
(0.000392973 0.000567767 -1.51344e-20 -0.000392156 1.03011e-21 -8.16938e-07)
(0.000426038 0.000483123 1.87942e-20 -0.000425326 -5.46813e-22 -7.12801e-07)
(0.000446963 0.000405127 -3.42175e-21 -0.000446239 1.37859e-21 -7.23286e-07)
(0.000457192 0.00033555 1.38525e-22 -0.000456389 -2.32428e-22 -8.03238e-07)
(0.000460934 0.000275693 2.97528e-22 -0.000460349 1.54053e-21 -5.84813e-07)
(0.000461695 0.000223636 3.75827e-21 -0.000461402 9.29579e-23 -2.92347e-07)
(0.000462041 0.000177037 -8.37823e-21 -0.000461812 6.20851e-23 -2.28736e-07)
(0.000462525 0.000134088 8.56395e-21 -0.000462223 9.3306e-23 -3.0288e-07)
(0.000465099 9.39892e-05 -8.43192e-21 -0.00046478 1.03579e-21 -3.18668e-07)
(0.000462851 5.44123e-05 8.55289e-21 -0.000462604 -3.51651e-22 -2.46805e-07)
(0.000456825 1.57714e-05 -4.08016e-21 -0.000456643 -1.10198e-21 -1.81377e-07)
(0.000441595 -2.12258e-05 1.21356e-20 -0.000441421 -5.86302e-22 -1.73526e-07)
(0.000427754 -5.58282e-05 7.07257e-21 -0.000427549 -7.27667e-22 -2.04899e-07)
(0.000400345 -8.50115e-05 8.41295e-24 -0.00040008 7.96561e-22 -2.64386e-07)
(0.000358532 -0.00010517 6.06897e-21 -0.000358288 -1.15677e-21 -2.4412e-07)
(0.000305539 -0.000113145 -6.69198e-21 -0.000305034 4.56081e-22 -5.05403e-07)
(0.000263188 -0.000118475 1.10788e-20 -0.000262846 -9.27183e-22 -3.42062e-07)
(0.000230952 -0.000119392 8.65174e-21 -0.000229487 -3.62183e-22 -1.46541e-06)
(0.000211841 -0.000134002 -6.33816e-22 -0.000212166 -4.31583e-23 3.24893e-07)
(0.000186062 -0.000132851 5.7794e-22 -0.000182973 -2.76636e-23 -3.08954e-06)
(0.000350337 -0.000381754 -1.77418e-20 -0.000366843 1.05227e-21 1.65064e-05)
(0.000682186 -0.00124064 -1.22812e-23 -0.000694153 1.80249e-23 1.19669e-05)