/*--------------------------------*- C++ -*----------------------------------*\
| =========                 |                                                 |
| \\      /  F ield         | OpenFOAM: The Open Source CFD Toolbox           |
|  \\    /   O peration     | Version:  2312                                  |
|   \\  /    A nd           | Website:  www.openfoam.com                      |
|    \\/     M anipulation  |                                                 |
\*---------------------------------------------------------------------------*/
FoamFile
{
    version     2.0;
    format      ascii;
    arch        "LSB;label=32;scalar=64";
    class       volScalarField;
    location    "100";
    object      turbulenceProperties:nuEff;
}
// * * * * * * * * * * * * * * * * * * * * * * * * * * * * * * * * * * * * * //

dimensions      [0 2 -1 0 0 0 0];

internalField   nonuniform List<scalar> 
11040
(
3.64708e-05
6.94066e-05
0.000117267
0.000194139
0.000304295
0.000731378
0.0011712
0.00126392
0.00135964
0.00146659
0.00157705
0.00168932
0.00178851
0.00186303
0.00191348
0.00194671
0.00196845
0.00198109
0.00198394
0.00197562
0.00195312
0.00192191
0.00189104
0.00186242
0.00183625
0.00180921
0.00178008
0.00174839
0.00171369
0.00167538
0.00163282
0.00158512
0.00153129
0.00146981
0.00139894
0.00131736
0.00122267
0.001113
0.000949946
0.000694525
0.000645518
1.53422e-05
1.58469e-05
2.95827e-05
8.41387e-05
0.000159929
0.000332222
0.000635234
0.00100631
0.0014515
0.00194079
0.00241195
0.00281406
0.00311011
0.00329362
0.00338782
0.00342779
0.00344281
0.00344646
0.00343797
0.00341158
0.00337161
0.00332929
0.00329272
0.00325507
0.00322401
0.00319622
0.00317031
0.0031459
0.00312325
0.00310299
0.00308552
0.00307085
0.00305859
0.00304775
0.00303726
0.00302545
0.00301163
0.00298922
0.00295755
0.00284539
0.00324268
1.63626e-05
1.6617e-05
1.6107e-05
1.78226e-05
2.65638e-05
5.34245e-05
0.000124475
0.000229802
0.000340326
0.000456845
0.0006109
0.000835587
0.00115024
0.00155347
0.00202381
0.00252266
0.00300239
0.00341852
0.00374364
0.0039729
0.00412432
0.00422549
0.00430566
0.00436551
0.00442604
0.00448007
0.00452521
0.00456216
0.004593
0.00461996
0.00464466
0.00466778
0.00468947
0.00470904
0.00472588
0.00473908
0.00475023
0.00475447
0.00476631
0.00472153
0.00489696
1.61561e-05
1.61978e-05
1.62407e-05
1.57184e-05
1.50428e-05
1.37518e-05
1.22952e-05
1.21049e-05
1.29006e-05
1.48043e-05
1.88113e-05
2.8317e-05
5.42764e-05
0.000113037
0.000212544
0.00037125
0.000615626
0.000962113
0.00141166
0.00194543
0.00253026
0.00308884
0.00356527
0.00395016
0.0042588
0.00450778
0.0047133
0.00488889
0.00504478
0.00518781
0.00532197
0.00544914
0.00557003
0.00568482
0.00579333
0.00589452
0.00598947
0.00607453
0.00616325
0.0062194
0.00631086
1.61518e-05
1.61601e-05
1.61793e-05
1.61848e-05
1.5995e-05
1.5407e-05
1.41054e-05
1.25033e-05
1.13652e-05
1.08069e-05
1.05547e-05
1.03948e-05
1.02361e-05
1.00893e-05
1.00137e-05
1.00007e-05
1.00024e-05
1.07658e-05
4.87654e-05
0.000178482
0.000379924
0.000673221
0.00103629
0.00144899
0.00189806
0.00236794
0.00284059
0.00330145
0.00374027
0.00415113
0.00453201
0.00488411
0.00521074
0.00551748
0.00580914
0.00608835
0.00635722
0.00661618
0.00686967
0.0071057
0.00730194
1.61221e-05
1.61239e-05
1.61289e-05
1.61337e-05
1.61474e-05
1.61498e-05
1.60821e-05
1.5833e-05
1.54408e-05
1.50568e-05
1.47523e-05
1.44897e-05
1.41976e-05
1.37904e-05
1.31526e-05
1.21904e-05
1.11758e-05
1.0172e-05
1.07411e-05
1.99644e-05
1.44114e-05
1.29696e-05
1.29684e-05
6.37139e-05
0.000175872
0.000318481
0.00050571
0.000746513
0.00104415
0.00139873
0.00180794
0.00226809
0.00277332
0.00331843
0.00389512
0.00449175
0.00509488
0.00569925
0.00629093
0.00685688
0.007417
1.61146e-05
1.61182e-05
1.61226e-05
1.6128e-05
1.61326e-05
1.61413e-05
1.61688e-05
1.62189e-05
1.62746e-05
1.63173e-05
1.6343e-05
1.63567e-05
1.63629e-05
1.6364e-05
1.63497e-05
1.63039e-05
1.6185e-05
1.57394e-05
1.47983e-05
1.37026e-05
1.25593e-05
1.07958e-05
1.00017e-05
1.00002e-05
1.69019e-05
4.23157e-05
1.00089e-05
1.00318e-05
1.14507e-05
4.45485e-05
0.000141635
0.000273076
0.000456502
0.000712557
0.00105978
0.00151384
0.00208341
0.00278255
0.00360119
0.00449594
0.00561224
1.61117e-05
1.61156e-05
1.6119e-05
1.61225e-05
1.6126e-05
1.61292e-05
1.61325e-05
1.61403e-05
1.61568e-05
1.61805e-05
1.62072e-05
1.62356e-05
1.62661e-05
1.63008e-05
1.6343e-05
1.63973e-05
1.64698e-05
1.65963e-05
1.67027e-05
1.65872e-05
1.61788e-05
1.60687e-05
1.52524e-05
1.42953e-05
1.28476e-05
1.1795e-05
1.0837e-05
1.02331e-05
1.00643e-05
1.0336e-05
1.31012e-05
1.00422e-05
1.00036e-05
0.000125335
1.0781e-05
6.90748e-05
0.000221829
0.000454076
0.000828318
0.00133937
0.0022825
1.61111e-05
1.61141e-05
1.61161e-05
1.61181e-05
1.61202e-05
1.61227e-05
1.61253e-05
1.61276e-05
1.61296e-05
1.61321e-05
1.61355e-05
1.61401e-05
1.61462e-05
1.61541e-05
1.61645e-05
1.61777e-05
1.61958e-05
1.62241e-05
1.62655e-05
1.63221e-05
1.64061e-05
1.65381e-05
1.6717e-05
1.67211e-05
1.67152e-05
1.63856e-05
1.60357e-05
1.57263e-05
1.48469e-05
1.38357e-05
1.26354e-05
1.15776e-05
1.05399e-05
1.00029e-05
1.00222e-05
1.03814e-05
1.6426e-05
1.00013e-05
1.55519e-05
4.79555e-05
0.000307327
1.611e-05
1.61114e-05
1.6112e-05
1.61126e-05
1.61135e-05
1.61148e-05
1.61165e-05
1.61182e-05
1.612e-05
1.61216e-05
1.6123e-05
1.61244e-05
1.61258e-05
1.61273e-05
1.61292e-05
1.61315e-05
1.61341e-05
1.61373e-05
1.61418e-05
1.61481e-05
1.61606e-05
1.61845e-05
1.6225e-05
1.62783e-05
1.63471e-05
1.64105e-05
1.64868e-05
1.65804e-05
1.67578e-05
1.67647e-05
1.66378e-05
1.61871e-05
1.58163e-05
1.49881e-05
1.36782e-05
1.19779e-05
1.07683e-05
1.00288e-05
1.00437e-05
1.01226e-05
2.08149e-05
1.61082e-05
1.61081e-05
1.61076e-05
1.61074e-05
1.61075e-05
1.61082e-05
1.61091e-05
1.61104e-05
1.61118e-05
1.61132e-05
1.61146e-05
1.61161e-05
1.61175e-05
1.61191e-05
1.61207e-05
1.61225e-05
1.61244e-05
1.61264e-05
1.61284e-05
1.61303e-05
1.6132e-05
1.61338e-05
1.61367e-05
1.6142e-05
1.61506e-05
1.61633e-05
1.618e-05
1.62027e-05
1.62419e-05
1.6294e-05
1.63649e-05
1.64475e-05
1.65428e-05
1.66897e-05
1.67515e-05
1.65323e-05
1.59116e-05
1.44535e-05
1.26789e-05
1.12762e-05
1.00977e-05
1.61057e-05
1.61045e-05
1.61034e-05
1.61028e-05
1.61027e-05
1.6103e-05
1.61036e-05
1.61044e-05
1.61054e-05
1.61065e-05
1.61075e-05
1.61086e-05
1.61097e-05
1.6111e-05
1.61123e-05
1.61138e-05
1.61155e-05
1.61174e-05
1.61195e-05
1.61218e-05
1.61242e-05
1.61267e-05
1.61291e-05
1.61313e-05
1.61333e-05
1.61353e-05
1.61372e-05
1.6139e-05
1.61411e-05
1.61453e-05
1.61528e-05
1.61677e-05
1.61912e-05
1.62321e-05
1.63032e-05
1.641e-05
1.6508e-05
1.66771e-05
1.65693e-05
1.64602e-05
1.47415e-05
1.61028e-05
1.6101e-05
1.60999e-05
1.60994e-05
1.60993e-05
1.60995e-05
1.60999e-05
1.61005e-05
1.61013e-05
1.61021e-05
1.61029e-05
1.61038e-05
1.61047e-05
1.61056e-05
1.61066e-05
1.61077e-05
1.61089e-05
1.61102e-05
1.61118e-05
1.61135e-05
1.61154e-05
1.61177e-05
1.61201e-05
1.61225e-05
1.6125e-05
1.61274e-05
1.61298e-05
1.61321e-05
1.61342e-05
1.61361e-05
1.61377e-05
1.6139e-05
1.61404e-05
1.61424e-05
1.61464e-05
1.61576e-05
1.61775e-05
1.62293e-05
1.63216e-05
1.64728e-05
1.66329e-05
1.60998e-05
1.60981e-05
1.60973e-05
1.6097e-05
1.6097e-05
1.60972e-05
1.60975e-05
1.60979e-05
1.60985e-05
1.60991e-05
1.60998e-05
1.61005e-05
1.61012e-05
1.6102e-05
1.61027e-05
1.61036e-05
1.61045e-05
1.61055e-05
1.61066e-05
1.61078e-05
1.61092e-05
1.61108e-05
1.61125e-05
1.61144e-05
1.61163e-05
1.61182e-05
1.61203e-05
1.61224e-05
1.61246e-05
1.61268e-05
1.61291e-05
1.61313e-05
1.61334e-05
1.61353e-05
1.61367e-05
1.61376e-05
1.61381e-05
1.61374e-05
1.61437e-05
1.61518e-05
1.62159e-05
1.60973e-05
1.60961e-05
1.60955e-05
1.60954e-05
1.60954e-05
1.60955e-05
1.60956e-05
1.60959e-05
1.60963e-05
1.60968e-05
1.60973e-05
1.60979e-05
1.60985e-05
1.60992e-05
1.60999e-05
1.61006e-05
1.61013e-05
1.61022e-05
1.6103e-05
1.6104e-05
1.61051e-05
1.61064e-05
1.61077e-05
1.6109e-05
1.61105e-05
1.6112e-05
1.61135e-05
1.61151e-05
1.61167e-05
1.61184e-05
1.61202e-05
1.6122e-05
1.61239e-05
1.61259e-05
1.61279e-05
1.613e-05
1.6132e-05
1.61334e-05
1.61342e-05
1.61336e-05
1.61332e-05
1.60954e-05
1.60948e-05
1.60944e-05
1.60942e-05
1.6094e-05
1.60939e-05
1.60939e-05
1.6094e-05
1.60942e-05
1.60945e-05
1.60949e-05
1.60954e-05
1.60959e-05
1.60964e-05
1.60971e-05
1.60977e-05
1.60984e-05
1.60991e-05
1.60999e-05
1.61008e-05
1.61017e-05
1.61028e-05
1.61039e-05
1.6105e-05
1.61062e-05
1.61074e-05
1.61087e-05
1.611e-05
1.61113e-05
1.61127e-05
1.61141e-05
1.61155e-05
1.6117e-05
1.61185e-05
1.61201e-05
1.61218e-05
1.61235e-05
1.61254e-05
1.61271e-05
1.61292e-05
1.61297e-05
1.60941e-05
1.60941e-05
1.60936e-05
1.60931e-05
1.60927e-05
1.60925e-05
1.60923e-05
1.60922e-05
1.60923e-05
1.60923e-05
1.60925e-05
1.60927e-05
1.6093e-05
1.60933e-05
1.60937e-05
1.60941e-05
1.60945e-05
1.6095e-05
1.60956e-05
1.60962e-05
1.60968e-05
1.60976e-05
1.60984e-05
1.60992e-05
1.61001e-05
1.6101e-05
1.61019e-05
1.61029e-05
1.61039e-05
1.61049e-05
1.6106e-05
1.61071e-05
1.61082e-05
1.61094e-05
1.61106e-05
1.61119e-05
1.61132e-05
1.61146e-05
1.6116e-05
1.61177e-05
1.6119e-05
1.60931e-05
1.60936e-05
1.60932e-05
1.60925e-05
1.6092e-05
1.60916e-05
1.60914e-05
1.60912e-05
1.60911e-05
1.60911e-05
1.60911e-05
1.60911e-05
1.60912e-05
1.60913e-05
1.60915e-05
1.60916e-05
1.60918e-05
1.60921e-05
1.60923e-05
1.60926e-05
1.6093e-05
1.60934e-05
1.60938e-05
1.60943e-05
1.60948e-05
1.60953e-05
1.60958e-05
1.60964e-05
1.6097e-05
1.60976e-05
1.60983e-05
1.6099e-05
1.60997e-05
1.61004e-05
1.61012e-05
1.6102e-05
1.61028e-05
1.61037e-05
1.61046e-05
1.61056e-05
1.61064e-05
1.60924e-05
1.6093e-05
1.60927e-05
1.60921e-05
1.60916e-05
1.60912e-05
1.60909e-05
1.60907e-05
1.60905e-05
1.60905e-05
1.60904e-05
1.60904e-05
1.60904e-05
1.60905e-05
1.60906e-05
1.60907e-05
1.60909e-05
1.60911e-05
1.60913e-05
1.60915e-05
1.60918e-05
1.60921e-05
1.60924e-05
1.60927e-05
1.60931e-05
1.60934e-05
1.60938e-05
1.60942e-05
1.60946e-05
1.60951e-05
1.60955e-05
1.6096e-05
1.60965e-05
1.60969e-05
1.60974e-05
1.60979e-05
1.60984e-05
1.6099e-05
1.60995e-05
1.61001e-05
1.61006e-05
1.6092e-05
1.60927e-05
1.60923e-05
1.60917e-05
1.60911e-05
1.60907e-05
1.60904e-05
1.60901e-05
1.60899e-05
1.60898e-05
1.60897e-05
1.60897e-05
1.60897e-05
1.60897e-05
1.60898e-05
1.60898e-05
1.609e-05
1.60901e-05
1.60902e-05
1.60904e-05
1.60906e-05
1.60909e-05
1.60911e-05
1.60914e-05
1.60917e-05
1.6092e-05
1.60923e-05
1.60927e-05
1.6093e-05
1.60934e-05
1.60938e-05
1.60941e-05
1.60945e-05
1.60949e-05
1.60954e-05
1.60958e-05
1.60962e-05
1.60966e-05
1.6097e-05
1.60975e-05
1.60979e-05
1.60918e-05
1.60924e-05
1.60919e-05
1.60913e-05
1.60907e-05
1.60902e-05
1.60899e-05
1.60896e-05
1.60894e-05
1.60893e-05
1.60892e-05
1.60891e-05
1.60891e-05
1.60891e-05
1.60891e-05
1.60891e-05
1.60892e-05
1.60893e-05
1.60894e-05
1.60895e-05
1.60897e-05
1.60898e-05
1.609e-05
1.60902e-05
1.60905e-05
1.60907e-05
1.6091e-05
1.60912e-05
1.60915e-05
1.60918e-05
1.60921e-05
1.60924e-05
1.60927e-05
1.60931e-05
1.60934e-05
1.60937e-05
1.60941e-05
1.60944e-05
1.60948e-05
1.60951e-05
1.60955e-05
1.60917e-05
1.60921e-05
1.60915e-05
1.60909e-05
1.60903e-05
1.60899e-05
1.60895e-05
1.60893e-05
1.60891e-05
1.60889e-05
1.60888e-05
1.60887e-05
1.60887e-05
1.60886e-05
1.60886e-05
1.60886e-05
1.60887e-05
1.60887e-05
1.60888e-05
1.60889e-05
1.6089e-05
1.60891e-05
1.60892e-05
1.60894e-05
1.60895e-05
1.60897e-05
1.60899e-05
1.60901e-05
1.60903e-05
1.60906e-05
1.60908e-05
1.6091e-05
1.60913e-05
1.60915e-05
1.60918e-05
1.60921e-05
1.60923e-05
1.60926e-05
1.60929e-05
1.60931e-05
1.60934e-05
1.60915e-05
1.60917e-05
1.60911e-05
1.60905e-05
1.609e-05
1.60896e-05
1.60893e-05
1.60891e-05
1.60889e-05
1.60888e-05
1.60887e-05
1.60886e-05
1.60885e-05
1.60884e-05
1.60884e-05
1.60884e-05
1.60883e-05
1.60884e-05
1.60884e-05
1.60884e-05
1.60885e-05
1.60885e-05
1.60886e-05
1.60887e-05
1.60888e-05
1.6089e-05
1.60891e-05
1.60893e-05
1.60894e-05
1.60896e-05
1.60898e-05
1.609e-05
1.60902e-05
1.60904e-05
1.60906e-05
1.60908e-05
1.6091e-05
1.60912e-05
1.60914e-05
1.60916e-05
1.60919e-05
1.60913e-05
1.60913e-05
1.60907e-05
1.60901e-05
1.60896e-05
1.60893e-05
1.60891e-05
1.6089e-05
1.60889e-05
1.60888e-05
1.60887e-05
1.60886e-05
1.60885e-05
1.60884e-05
1.60883e-05
1.60883e-05
1.60882e-05
1.60882e-05
1.60882e-05
1.60882e-05
1.60882e-05
1.60882e-05
1.60883e-05
1.60883e-05
1.60884e-05
1.60885e-05
1.60886e-05
1.60887e-05
1.60888e-05
1.60889e-05
1.60891e-05
1.60892e-05
1.60894e-05
1.60895e-05
1.60897e-05
1.60898e-05
1.609e-05
1.60901e-05
1.60903e-05
1.60904e-05
1.60907e-05
1.6091e-05
1.60909e-05
1.60902e-05
1.60897e-05
1.60893e-05
1.60891e-05
1.60889e-05
1.60889e-05
1.60888e-05
1.60887e-05
1.60887e-05
1.60886e-05
1.60886e-05
1.60885e-05
1.60885e-05
1.60884e-05
1.60883e-05
1.60882e-05
1.60882e-05
1.60882e-05
1.60881e-05
1.60881e-05
1.60881e-05
1.60881e-05
1.60882e-05
1.60882e-05
1.60883e-05
1.60883e-05
1.60884e-05
1.60885e-05
1.60886e-05
1.60887e-05
1.60888e-05
1.60889e-05
1.6089e-05
1.60891e-05
1.60893e-05
1.60894e-05
1.60895e-05
1.60896e-05
1.60898e-05
1.60907e-05
1.60904e-05
1.60898e-05
1.60893e-05
1.6089e-05
1.60889e-05
1.60888e-05
1.60887e-05
1.60887e-05
1.60887e-05
1.60887e-05
1.60887e-05
1.60887e-05
1.60887e-05
1.60886e-05
1.60886e-05
1.60885e-05
1.60885e-05
1.60884e-05
1.60883e-05
1.60883e-05
1.60882e-05
1.60882e-05
1.60882e-05
1.60882e-05
1.60882e-05
1.60882e-05
1.60882e-05
1.60882e-05
1.60883e-05
1.60883e-05
1.60884e-05
1.60885e-05
1.60885e-05
1.60886e-05
1.60887e-05
1.60888e-05
1.60889e-05
1.6089e-05
1.6089e-05
1.60892e-05
1.60903e-05
1.60899e-05
1.60894e-05
1.6089e-05
1.60887e-05
1.60886e-05
1.60886e-05
1.60886e-05
1.60887e-05
1.60887e-05
1.60887e-05
1.60888e-05
1.60888e-05
1.60888e-05
1.60888e-05
1.60888e-05
1.60887e-05
1.60887e-05
1.60887e-05
1.60886e-05
1.60886e-05
1.60885e-05
1.60885e-05
1.60884e-05
1.60884e-05
1.60883e-05
1.60883e-05
1.60883e-05
1.60883e-05
1.60883e-05
1.60883e-05
1.60883e-05
1.60884e-05
1.60884e-05
1.60884e-05
1.60885e-05
1.60885e-05
1.60886e-05
1.60887e-05
1.60887e-05
1.60888e-05
1.60898e-05
1.60894e-05
1.60889e-05
1.60886e-05
1.60885e-05
1.60884e-05
1.60884e-05
1.60885e-05
1.60886e-05
1.60886e-05
1.60887e-05
1.60888e-05
1.60888e-05
1.60889e-05
1.60889e-05
1.60889e-05
1.60889e-05
1.60889e-05
1.60889e-05
1.60889e-05
1.60889e-05
1.60889e-05
1.60888e-05
1.60888e-05
1.60887e-05
1.60886e-05
1.60886e-05
1.60885e-05
1.60885e-05
1.60885e-05
1.60884e-05
1.60884e-05
1.60884e-05
1.60885e-05
1.60885e-05
1.60885e-05
1.60885e-05
1.60885e-05
1.60886e-05
1.60886e-05
1.60887e-05
1.60893e-05
1.6089e-05
1.60885e-05
1.60883e-05
1.60882e-05
1.60882e-05
1.60882e-05
1.60883e-05
1.60885e-05
1.60886e-05
1.60887e-05
1.60888e-05
1.60888e-05
1.60889e-05
1.6089e-05
1.6089e-05
1.60891e-05
1.60891e-05
1.60891e-05
1.60891e-05
1.60891e-05
1.60891e-05
1.60891e-05
1.60891e-05
1.6089e-05
1.6089e-05
1.60889e-05
1.60889e-05
1.60888e-05
1.60888e-05
1.60887e-05
1.60887e-05
1.60887e-05
1.60886e-05
1.60886e-05
1.60886e-05
1.60886e-05
1.60886e-05
1.60886e-05
1.60886e-05
1.60887e-05
1.60888e-05
1.60884e-05
1.60881e-05
1.60879e-05
1.60878e-05
1.60879e-05
1.6088e-05
1.60881e-05
1.60883e-05
1.60884e-05
1.60886e-05
1.60887e-05
1.60888e-05
1.60889e-05
1.6089e-05
1.60891e-05
1.60891e-05
1.60892e-05
1.60892e-05
1.60893e-05
1.60893e-05
1.60893e-05
1.60893e-05
1.60893e-05
1.60893e-05
1.60893e-05
1.60892e-05
1.60892e-05
1.60892e-05
1.60891e-05
1.60891e-05
1.6089e-05
1.6089e-05
1.60889e-05
1.60889e-05
1.60889e-05
1.60888e-05
1.60888e-05
1.60888e-05
1.60888e-05
1.60888e-05
1.60883e-05
1.60879e-05
1.60876e-05
1.60875e-05
1.60875e-05
1.60876e-05
1.60877e-05
1.60879e-05
1.60881e-05
1.60882e-05
1.60884e-05
1.60885e-05
1.60887e-05
1.60888e-05
1.60889e-05
1.6089e-05
1.60891e-05
1.60892e-05
1.60892e-05
1.60893e-05
1.60894e-05
1.60894e-05
1.60894e-05
1.60894e-05
1.60894e-05
1.60894e-05
1.60894e-05
1.60894e-05
1.60894e-05
1.60894e-05
1.60893e-05
1.60893e-05
1.60893e-05
1.60892e-05
1.60892e-05
1.60892e-05
1.60891e-05
1.60891e-05
1.60891e-05
1.60891e-05
1.60891e-05
1.60876e-05
1.60873e-05
1.60871e-05
1.6087e-05
1.60871e-05
1.60872e-05
1.60874e-05
1.60876e-05
1.60878e-05
1.60879e-05
1.60881e-05
1.60883e-05
1.60884e-05
1.60886e-05
1.60887e-05
1.60888e-05
1.6089e-05
1.60891e-05
1.60892e-05
1.60892e-05
1.60893e-05
1.60894e-05
1.60894e-05
1.60895e-05
1.60895e-05
1.60895e-05
1.60895e-05
1.60895e-05
1.60895e-05
1.60895e-05
1.60895e-05
1.60895e-05
1.60894e-05
1.60894e-05
1.60894e-05
1.60894e-05
1.60894e-05
1.60893e-05
1.60893e-05
1.60893e-05
1.60893e-05
1.6087e-05
1.60867e-05
1.60865e-05
1.60865e-05
1.60866e-05
1.60868e-05
1.6087e-05
1.60872e-05
1.60874e-05
1.60875e-05
1.60877e-05
1.60879e-05
1.60881e-05
1.60883e-05
1.60884e-05
1.60886e-05
1.60887e-05
1.60888e-05
1.60889e-05
1.6089e-05
1.60891e-05
1.60892e-05
1.60893e-05
1.60893e-05
1.60894e-05
1.60894e-05
1.60894e-05
1.60895e-05
1.60895e-05
1.60895e-05
1.60895e-05
1.60895e-05
1.60895e-05
1.60895e-05
1.60894e-05
1.60894e-05
1.60894e-05
1.60894e-05
1.60894e-05
1.60894e-05
1.60894e-05
1.60863e-05
1.60861e-05
1.6086e-05
1.6086e-05
1.60861e-05
1.60863e-05
1.60865e-05
1.60867e-05
1.60869e-05
1.6087e-05
1.60872e-05
1.60874e-05
1.60876e-05
1.60878e-05
1.6088e-05
1.60881e-05
1.60883e-05
1.60885e-05
1.60886e-05
1.60887e-05
1.60888e-05
1.60889e-05
1.6089e-05
1.60891e-05
1.60892e-05
1.60892e-05
1.60892e-05
1.60893e-05
1.60893e-05
1.60893e-05
1.60893e-05
1.60894e-05
1.60893e-05
1.60893e-05
1.60893e-05
1.60893e-05
1.60894e-05
1.60894e-05
1.60894e-05
1.60894e-05
1.60894e-05
1.60856e-05
1.60854e-05
1.60853e-05
1.60854e-05
1.60855e-05
1.60857e-05
1.60858e-05
1.6086e-05
1.60862e-05
1.60864e-05
1.60866e-05
1.60868e-05
1.6087e-05
1.60872e-05
1.60874e-05
1.60876e-05
1.60878e-05
1.60879e-05
1.60881e-05
1.60882e-05
1.60884e-05
1.60885e-05
1.60886e-05
1.60887e-05
1.60888e-05
1.60888e-05
1.60889e-05
1.60889e-05
1.6089e-05
1.6089e-05
1.6089e-05
1.60891e-05
1.60891e-05
1.60891e-05
1.60891e-05
1.60891e-05
1.60891e-05
1.60891e-05
1.60891e-05
1.60892e-05
1.60892e-05
1.60848e-05
1.60846e-05
1.60846e-05
1.60847e-05
1.60848e-05
1.60849e-05
1.60851e-05
1.60853e-05
1.60855e-05
1.60857e-05
1.60859e-05
1.60861e-05
1.60863e-05
1.60865e-05
1.60867e-05
1.60869e-05
1.60871e-05
1.60873e-05
1.60874e-05
1.60876e-05
1.60877e-05
1.60879e-05
1.6088e-05
1.60881e-05
1.60882e-05
1.60883e-05
1.60884e-05
1.60884e-05
1.60885e-05
1.60885e-05
1.60886e-05
1.60886e-05
1.60886e-05
1.60886e-05
1.60887e-05
1.60887e-05
1.60887e-05
1.60887e-05
1.60887e-05
1.60888e-05
1.60888e-05
1.60839e-05
1.60838e-05
1.60838e-05
1.60839e-05
1.6084e-05
1.60841e-05
1.60842e-05
1.60844e-05
1.60846e-05
1.60848e-05
1.6085e-05
1.60852e-05
1.60854e-05
1.60856e-05
1.60858e-05
1.6086e-05
1.60862e-05
1.60864e-05
1.60866e-05
1.60868e-05
1.60869e-05
1.60871e-05
1.60872e-05
1.60873e-05
1.60875e-05
1.60876e-05
1.60876e-05
1.60877e-05
1.60878e-05
1.60879e-05
1.60879e-05
1.6088e-05
1.6088e-05
1.6088e-05
1.60881e-05
1.60881e-05
1.60881e-05
1.60881e-05
1.60882e-05
1.60882e-05
1.60882e-05
1.6083e-05
1.60829e-05
1.60829e-05
1.6083e-05
1.6083e-05
1.60831e-05
1.60832e-05
1.60834e-05
1.60836e-05
1.60837e-05
1.60839e-05
1.60841e-05
1.60844e-05
1.60846e-05
1.60848e-05
1.6085e-05
1.60852e-05
1.60854e-05
1.60856e-05
1.60858e-05
1.6086e-05
1.60861e-05
1.60863e-05
1.60864e-05
1.60865e-05
1.60866e-05
1.60867e-05
1.60868e-05
1.60869e-05
1.6087e-05
1.60871e-05
1.60871e-05
1.60872e-05
1.60872e-05
1.60873e-05
1.60873e-05
1.60873e-05
1.60874e-05
1.60874e-05
1.60874e-05
1.60875e-05
1.6082e-05
1.6082e-05
1.60819e-05
1.60819e-05
1.6082e-05
1.6082e-05
1.60821e-05
1.60822e-05
1.60824e-05
1.60826e-05
1.60827e-05
1.6083e-05
1.60832e-05
1.60834e-05
1.60836e-05
1.60838e-05
1.6084e-05
1.60842e-05
1.60844e-05
1.60846e-05
1.60848e-05
1.6085e-05
1.60851e-05
1.60853e-05
1.60854e-05
1.60855e-05
1.60856e-05
1.60857e-05
1.60858e-05
1.60859e-05
1.6086e-05
1.60861e-05
1.60861e-05
1.60862e-05
1.60862e-05
1.60863e-05
1.60863e-05
1.60864e-05
1.60864e-05
1.60865e-05
1.60865e-05
1.6081e-05
1.60809e-05
1.60808e-05
1.60808e-05
1.60808e-05
1.60808e-05
1.60809e-05
1.6081e-05
1.60811e-05
1.60812e-05
1.60814e-05
1.60816e-05
1.60818e-05
1.6082e-05
1.60822e-05
1.60824e-05
1.60826e-05
1.60829e-05
1.60831e-05
1.60832e-05
1.60834e-05
1.60836e-05
1.60838e-05
1.60839e-05
1.6084e-05
1.60842e-05
1.60843e-05
1.60844e-05
1.60845e-05
1.60846e-05
1.60847e-05
1.60848e-05
1.60848e-05
1.60849e-05
1.6085e-05
1.6085e-05
1.60851e-05
1.60851e-05
1.60852e-05
1.60852e-05
1.60853e-05
1.60798e-05
1.60798e-05
1.60797e-05
1.60796e-05
1.60795e-05
1.60795e-05
1.60795e-05
1.60796e-05
1.60797e-05
1.60798e-05
1.60799e-05
1.60801e-05
1.60803e-05
1.60805e-05
1.60807e-05
1.60809e-05
1.60811e-05
1.60813e-05
1.60815e-05
1.60816e-05
1.60818e-05
1.6082e-05
1.60822e-05
1.60823e-05
1.60824e-05
1.60826e-05
1.60827e-05
1.60828e-05
1.60829e-05
1.6083e-05
1.60831e-05
1.60832e-05
1.60833e-05
1.60833e-05
1.60834e-05
1.60835e-05
1.60835e-05
1.60836e-05
1.60836e-05
1.60837e-05
1.60837e-05
1.60786e-05
1.60785e-05
1.60784e-05
1.60782e-05
1.60781e-05
1.60781e-05
1.6078e-05
1.60781e-05
1.60781e-05
1.60782e-05
1.60783e-05
1.60784e-05
1.60786e-05
1.60787e-05
1.60789e-05
1.60791e-05
1.60793e-05
1.60794e-05
1.60796e-05
1.60798e-05
1.608e-05
1.60801e-05
1.60803e-05
1.60804e-05
1.60806e-05
1.60807e-05
1.60808e-05
1.60809e-05
1.6081e-05
1.60811e-05
1.60812e-05
1.60813e-05
1.60814e-05
1.60815e-05
1.60816e-05
1.60816e-05
1.60817e-05
1.60818e-05
1.60818e-05
1.60819e-05
1.60819e-05
1.60773e-05
1.60772e-05
1.6077e-05
1.60768e-05
1.60767e-05
1.60766e-05
1.60765e-05
1.60765e-05
1.60765e-05
1.60765e-05
1.60766e-05
1.60766e-05
1.60767e-05
1.60768e-05
1.6077e-05
1.60771e-05
1.60772e-05
1.60774e-05
1.60775e-05
1.60777e-05
1.60778e-05
1.6078e-05
1.60781e-05
1.60782e-05
1.60784e-05
1.60785e-05
1.60786e-05
1.60787e-05
1.60788e-05
1.60789e-05
1.6079e-05
1.60791e-05
1.60791e-05
1.60792e-05
1.60793e-05
1.60793e-05
1.60794e-05
1.60794e-05
1.60795e-05
1.60795e-05
1.60796e-05
1.60758e-05
1.60757e-05
1.60755e-05
1.60753e-05
1.60751e-05
1.6075e-05
1.60749e-05
1.60748e-05
1.60747e-05
1.60747e-05
1.60747e-05
1.60747e-05
1.60747e-05
1.60748e-05
1.60748e-05
1.60749e-05
1.6075e-05
1.60751e-05
1.60752e-05
1.60752e-05
1.60753e-05
1.60754e-05
1.60755e-05
1.60756e-05
1.60757e-05
1.60758e-05
1.60759e-05
1.6076e-05
1.60761e-05
1.60762e-05
1.60763e-05
1.60764e-05
1.60765e-05
1.60765e-05
1.60766e-05
1.60767e-05
1.60768e-05
1.60769e-05
1.6077e-05
1.6077e-05
1.60771e-05
1.60742e-05
1.60741e-05
1.60739e-05
1.60737e-05
1.60735e-05
1.60734e-05
1.60732e-05
1.60731e-05
1.6073e-05
1.60729e-05
1.60728e-05
1.60727e-05
1.60727e-05
1.60726e-05
1.60726e-05
1.60725e-05
1.60725e-05
1.60725e-05
1.60725e-05
1.60725e-05
1.60726e-05
1.60726e-05
1.60727e-05
1.60727e-05
1.60728e-05
1.60729e-05
1.6073e-05
1.6073e-05
1.60731e-05
1.60732e-05
1.60732e-05
1.60733e-05
1.60734e-05
1.60734e-05
1.60734e-05
1.60735e-05
1.60735e-05
1.60735e-05
1.60735e-05
1.60735e-05
1.60736e-05
1.60725e-05
1.60724e-05
1.60722e-05
1.6072e-05
1.60719e-05
1.60717e-05
1.60716e-05
1.60714e-05
1.60713e-05
1.60711e-05
1.6071e-05
1.60708e-05
1.60706e-05
1.60705e-05
1.60703e-05
1.60702e-05
1.60701e-05
1.607e-05
1.607e-05
1.60699e-05
1.60698e-05
1.60698e-05
1.60698e-05
1.60698e-05
1.60697e-05
1.60697e-05
1.60697e-05
1.60697e-05
1.60697e-05
1.60697e-05
1.60697e-05
1.60698e-05
1.60698e-05
1.60698e-05
1.60699e-05
1.607e-05
1.607e-05
1.60701e-05
1.60702e-05
1.60703e-05
1.60704e-05
1.60707e-05
1.60706e-05
1.60704e-05
1.60703e-05
1.60702e-05
1.60701e-05
1.607e-05
1.60698e-05
1.60697e-05
1.60695e-05
1.60693e-05
1.6069e-05
1.60688e-05
1.60686e-05
1.60686e-05
1.60686e-05
1.60687e-05
1.60688e-05
1.60689e-05
1.6069e-05
1.60691e-05
1.60692e-05
1.60693e-05
1.60694e-05
1.60695e-05
1.60696e-05
1.60697e-05
1.60698e-05
1.60699e-05
1.607e-05
1.60701e-05
1.60701e-05
1.60702e-05
1.60703e-05
1.60703e-05
1.60704e-05
1.60705e-05
1.60705e-05
1.60706e-05
1.60707e-05
1.60707e-05
1.60687e-05
1.60686e-05
1.60686e-05
1.60686e-05
1.60685e-05
1.60685e-05
1.60684e-05
1.60684e-05
1.60683e-05
1.60682e-05
1.60681e-05
1.60679e-05
1.60679e-05
1.6068e-05
1.60682e-05
1.60685e-05
1.60689e-05
1.60694e-05
1.60699e-05
1.60704e-05
1.6071e-05
1.60716e-05
1.60723e-05
1.60729e-05
1.60736e-05
1.60743e-05
1.60749e-05
1.60755e-05
1.60761e-05
1.60766e-05
1.6077e-05
1.60774e-05
1.60777e-05
1.6078e-05
1.60783e-05
1.60785e-05
1.60787e-05
1.60788e-05
1.60789e-05
1.6079e-05
1.6079e-05
0.00355662
0.00487323
0.00549559
0.00585687
0.00607872
0.00618558
0.00618626
0.00608838
0.005899
0.00561758
0.00521863
0.00469224
0.00409478
0.00348589
0.00283736
0.00183927
0.000564373
0.000279783
0.00245845
0.00561733
0.00763321
0.0081272
0.00752147
0.00621864
0.00449038
0.00261997
0.00102028
0.000100185
6.16145e-05
1.00238e-05
1e-05
1.24412e-05
1.90182e-05
1.85035e-05
1.65148e-05
1.58858e-05
1.60123e-05
1.61887e-05
1.62299e-05
1.62096e-05
1.61929e-05
1.6189e-05
1.61884e-05
1.61866e-05
1.61837e-05
1.61808e-05
1.61789e-05
1.61762e-05
1.61727e-05
1.61695e-05
1.61669e-05
1.61652e-05
1.61648e-05
1.61656e-05
1.61679e-05
1.61714e-05
1.61761e-05
1.61845e-05
1.6191e-05
1.61981e-05
1.62056e-05
1.62128e-05
1.62189e-05
1.62236e-05
1.62265e-05
1.62273e-05
1.62256e-05
1.62212e-05
1.62143e-05
1.6205e-05
1.61939e-05
1.61822e-05
1.61711e-05
1.61615e-05
0.00486754
0.00602123
0.00674396
0.00719323
0.00746707
0.00761936
0.00767917
0.00765897
0.00756268
0.00738694
0.00710909
0.00670522
0.00621243
0.00569566
0.00518019
0.00416046
0.00227071
0.00177087
0.00448421
0.00825942
0.0106748
0.0113954
0.0109258
0.009704
0.00797804
0.00590044
0.00367824
0.00165824
0.00037992
1.15774e-05
1.01928e-05
1.00116e-05
1.05907e-05
1.6667e-05
1.92987e-05
1.72465e-05
1.60069e-05
1.59019e-05
1.61265e-05
1.6245e-05
1.62389e-05
1.62056e-05
1.61903e-05
1.61889e-05
1.61891e-05
1.61863e-05
1.61827e-05
1.61791e-05
1.61755e-05
1.61724e-05
1.61701e-05
1.61691e-05
1.61698e-05
1.61722e-05
1.61764e-05
1.61822e-05
1.6189e-05
1.61949e-05
1.62013e-05
1.62085e-05
1.6216e-05
1.62232e-05
1.62292e-05
1.62334e-05
1.62354e-05
1.62351e-05
1.62319e-05
1.62261e-05
1.62177e-05
1.62071e-05
1.61953e-05
1.61835e-05
1.61729e-05
1.61652e-05
0.00614103
0.00669596
0.00740316
0.0079559
0.00830542
0.00853019
0.00868324
0.0087772
0.00880807
0.00877077
0.00865044
0.0084202
0.00809559
0.0077374
0.00742232
0.00671755
0.00495352
0.0037947
0.00566016
0.00933935
0.0122622
0.0135914
0.0136233
0.0127891
0.0113699
0.00951471
0.00732133
0.00491298
0.00258631
0.000927955
4.50045e-05
8.30392e-05
1.05568e-05
1.00889e-05
1.1563e-05
1.7429e-05
1.84636e-05
1.67781e-05
1.59249e-05
1.59165e-05
1.61294e-05
1.62407e-05
1.62392e-05
1.62067e-05
1.6188e-05
1.61839e-05
1.61844e-05
1.61836e-05
1.61805e-05
1.61769e-05
1.61746e-05
1.61741e-05
1.61757e-05
1.61793e-05
1.61848e-05
1.6192e-05
1.62008e-05
1.62073e-05
1.62136e-05
1.62203e-05
1.62275e-05
1.62344e-05
1.624e-05
1.62436e-05
1.62446e-05
1.6243e-05
1.62384e-05
1.62309e-05
1.62211e-05
1.62094e-05
1.6197e-05
1.61854e-05
1.61756e-05
1.61698e-05
0.00728732
0.00799606
0.00842068
0.00865894
0.00877085
0.00893076
0.00913073
0.00931756
0.00945738
0.009549
0.00959448
0.00956715
0.00945613
0.00930041
0.00919968
0.00889397
0.00763449
0.00616476
0.00690275
0.00997377
0.0131676
0.0151381
0.0158081
0.0155086
0.0145332
0.0130617
0.01119
0.00896922
0.00646721
0.00392223
0.0017927
0.000463538
4.94051e-05
1.00808e-05
1.00658e-05
1.00083e-05
1.26725e-05
1.81466e-05
1.86768e-05
1.69923e-05
1.60429e-05
1.59233e-05
1.60994e-05
1.62301e-05
1.6249e-05
1.62155e-05
1.61865e-05
1.61775e-05
1.61792e-05
1.61818e-05
1.61821e-05
1.61819e-05
1.61831e-05
1.61869e-05
1.61932e-05
1.62015e-05
1.6212e-05
1.62207e-05
1.62275e-05
1.62338e-05
1.62401e-05
1.62462e-05
1.62511e-05
1.62539e-05
1.6254e-05
1.6251e-05
1.62449e-05
1.6236e-05
1.62248e-05
1.62123e-05
1.61995e-05
1.61881e-05
1.61792e-05
1.61752e-05
0.00791772
0.00850342
0.00896146
0.0092916
0.00948439
0.00958854
0.00965176
0.00969417
0.00970393
0.00975095
0.00987146
0.0100009
0.0100828
0.0101248
0.010228
0.0102875
0.00960619
0.00838723
0.00836065
0.0104843
0.0135277
0.0159841
0.0173336
0.0176818
0.0172709
0.0162945
0.0148717
0.013064
0.0108937
0.00839099
0.00573348
0.0032204
0.00138828
0.000282367
1.0959e-05
1.00783e-05
1.00124e-05
1.00119e-05
1.21103e-05
1.77845e-05
1.89976e-05
1.74004e-05
1.62098e-05
1.58925e-05
1.60113e-05
1.61778e-05
1.62429e-05
1.62281e-05
1.61957e-05
1.61783e-05
1.61779e-05
1.61854e-05
1.61933e-05
1.61998e-05
1.6206e-05
1.62134e-05
1.62234e-05
1.62338e-05
1.62423e-05
1.62487e-05
1.62541e-05
1.62588e-05
1.62625e-05
1.62642e-05
1.62632e-05
1.62589e-05
1.62515e-05
1.62414e-05
1.62292e-05
1.62159e-05
1.62029e-05
1.61918e-05
1.61836e-05
1.61811e-05
0.00767927
0.00792718
0.00822393
0.00857602
0.00895362
0.0093063
0.00960144
0.00982792
0.0099778
0.0100671
0.0101295
0.0101762
0.0101784
0.0102102
0.0103927
0.0106766
0.0105776
0.00995375
0.00962873
0.0108238
0.013349
0.0160059
0.0179647
0.019026
0.0192948
0.0189327
0.0180688
0.0167854
0.0151224
0.0130827
0.010686
0.00800897
0.00529085
0.00286483
0.00117273
0.000168551
0.000250346
1.00748e-05
1.00167e-05
1e-05
1.09836e-05
1.57798e-05
1.86896e-05
1.78534e-05
1.65497e-05
1.59505e-05
1.59182e-05
1.60832e-05
1.62095e-05
1.62401e-05
1.6218e-05
1.61934e-05
1.61871e-05
1.61968e-05
1.62128e-05
1.62277e-05
1.62401e-05
1.62506e-05
1.62592e-05
1.62655e-05
1.62699e-05
1.62728e-05
1.62745e-05
1.62746e-05
1.62722e-05
1.62667e-05
1.62582e-05
1.62471e-05
1.62343e-05
1.62206e-05
1.62075e-05
1.61967e-05
1.61889e-05
1.61876e-05
0.00572919
0.00573279
0.00581773
0.00603464
0.00639473
0.00687853
0.00744041
0.00803361
0.00860836
0.00912125
0.00954806
0.00988254
0.0101132
0.0102491
0.0103693
0.010559
0.010636
0.0104197
0.0101411
0.010669
0.0124776
0.0149999
0.0173838
0.0191498
0.0201904
0.0205715
0.0203978
0.0197583
0.0187113
0.0172815
0.01547
0.013273
0.0107271
0.0079533
0.00519995
0.00278862
0.00115859
0.000182203
1.00037e-05
1.02993e-05
1.00053e-05
1.00442e-05
1.09412e-05
1.40714e-05
1.80864e-05
1.82604e-05
1.70123e-05
1.61139e-05
1.58591e-05
1.59724e-05
1.61548e-05
1.62562e-05
1.62696e-05
1.62459e-05
1.62268e-05
1.62266e-05
1.62411e-05
1.62602e-05
1.62763e-05
1.62861e-05
1.62902e-05
1.62906e-05
1.62891e-05
1.62862e-05
1.62816e-05
1.62746e-05
1.6265e-05
1.62532e-05
1.624e-05
1.62263e-05
1.62134e-05