/*--------------------------------*- C++ -*----------------------------------*\
| =========                 |                                                 |
| \\      /  F ield         | OpenFOAM: The Open Source CFD Toolbox           |
|  \\    /   O peration     | Version:  2312                                  |
|   \\  /    A nd           | Website:  www.openfoam.com                      |
|    \\/     M anipulation  |                                                 |
\*---------------------------------------------------------------------------*/
FoamFile
{
    version     2.0;
    format      ascii;
    arch        "LSB;label=32;scalar=64";
    class       volScalarField;
    location    "100";
    object      turbulenceProperties:epsilon;
}
// * * * * * * * * * * * * * * * * * * * * * * * * * * * * * * * * * * * * * //

dimensions      [0 2 -3 0 0 0 0];

internalField   nonuniform List<scalar> 
11040
(
1103.56
3737.8
6569.11
8653.48
9388.02
14767.9
16110.2
14402.5
16577.4
18289.1
20364
23269.9
26464.9
29299.2
31506.5
33094.3
34089.6
34464.3
34153.6
33129.9
31270
28863.2
26450.4
24282.7
22327.1
20435
18587.1
16782.1
15020.4
13300.3
11624.3
9995.55
8422.81
6913.99
5484.04
4165.72
2983.35
1991.21
1120.09
525.867
138.325
27.1164
39.8723
86.7378
281.713
1022.69
3341.92
7611.76
11968.9
14078.1
15275.6
15241.7
13956.7
12000.1
9893.81
7918.9
6214.06
4832.02
3760.48
2952.69
2346.94
1932.04
1650.81
1441.18
1264.74
1120.17
1002.71
906.511
827.042
761.205
706.882
662.098
625.363
595.093
570.011
548.89
529.959
511.532
488.257
460.277
394.416
690.646
9.09705
4.90486
3.96221
2.60198
0.398669
6.77252
76.8809
280.985
574.915
891.847
1242.92
1662.02
2153.42
2680.66
3172.98
3545.3
3731.32
3705.44
3488.59
3137.7
2708.71
2299.93
1961.88
1678.31
1448.25
1264.46
1116.22
995.372
895.75
812.541
742.128
681.914
630.233
585.662
547.692
515.916
490.872
469.399
456.865
414.689
477.724
4.45371
3.84603
2.94589
2.14943
1.52763
0.785634
0.245642
0.0750315
0.0136026
0.0184732
0.163798
0.722762
2.74499
8.95156
24.4091
58.7548
126.051
239.064
401.338
600.51
811.327
991.215
1108.12
1158
1156.06
1122.05
1068.53
1005.09
938.559
873.473
812.503
757.117
707.923
664.752
627.388
595.236
568.701
544.603
529.732
492.009
526.613
2.12809
1.99562
1.68356
1.26027
0.904243
0.681407
0.472048
0.254107
0.11088
0.0481106
0.0234312
0.0119976
0.00526904
0.00139622
0.000127309
2.79121e-06
6.00827e-06
0.00108402
0.024306
0.664832
4.71162
17.7248
44.1111
84.5761
137.201
198.33
263.141
326.957
386.085
438.082
481.652
516.506
543.034
562.114
574.785
581.735
584.456
581.583
579.979
560.172
582.899
0.981435
1.00032
0.948318
0.807676
0.643003
0.5084
0.412488
0.333031
0.254649
0.180877
0.121907
0.0821669
0.0581217
0.0429529
0.0310291
0.0193326
0.00932439
0.00105848
0.00498469
0.0684126
0.0231286
0.00967617
0.00470012
0.0315464
0.100658
0.522049
1.92309
5.26576
11.8024
22.958
40.1702
64.749
97.6864
139.678
190.705
249.469
313.544
378.806
443.484
490.98
564.892
0.47102
0.497333
0.518831
0.501595
0.446588
0.373837
0.303932
0.244266
0.191475
0.142876
0.101037
0.0696234
0.0489668
0.036263
0.0282407
0.0228807
0.0191244
0.0157567
0.0121181
0.00884637
0.0058963
0.00163275
1.54984e-06
1.04238e-07
0.0132464
0.0511235
6.24608e-06
1.97407e-05
0.000959885
0.016716
0.059803
0.214063
0.757621
2.33128
6.22137
14.6642
30.9897
59.6287
105.888
166.01
274.111
0.230718
0.246265
0.268184
0.277916
0.268072
0.243673
0.212804
0.180552
0.148102
0.115999
0.0863505
0.0619175
0.0441161
0.0322102
0.0243761
0.0190847
0.0154302
0.0129423
0.0111062
0.00942958
0.0078189
0.00690405
0.00535348
0.00393952
0.00237296
0.00137705
0.000580505
0.000137848
3.20591e-05
0.000198301
0.00214824
1.73462e-05
9.62259e-07
0.0488578
0.000323448
0.0312101
0.181123
0.78389
3.01121
8.50629
29.5519
0.115623
0.123373
0.136508
0.148177
0.153129
0.14991
0.139971
0.12552
0.108256
0.0893953
0.0705589
0.0536565
0.0401211
0.0302333
0.0232883
0.018381
0.0148469
0.012267
0.0103452
0.00886941
0.00771806
0.00681866
0.00608456
0.00532455
0.0047438
0.0041168
0.00362936
0.00327201
0.00266337
0.0020437
0.00135786
0.000775851
0.000236941
6.76358e-07
6.28507e-06
0.00014155
0.00268819
2.10475e-07
0.0023862
0.0198397
0.386027
0.0586905
0.062319
0.0689416
0.0763088
0.0821015
0.0847646
0.0837949
0.0795659
0.072661
0.0637479
0.053703
0.043608
0.0345302
0.0271294
0.0214473
0.0171776
0.0139713
0.0115524
0.00970902
0.00827248
0.00712955
0.00621027
0.00545507
0.00483042
0.00434518
0.00397546
0.00370895
0.00352431
0.00344142
0.00332093
0.00318205
0.0029268
0.00273924
0.00234276
0.00170564
0.00087286
0.000302635
7.24587e-06
1.07597e-05
2.77051e-05
0.00436794
0.0300547
0.0317302
0.0348644
0.0387659
0.0426332
0.0456958
0.047368
0.0473516
0.0456045
0.0422713
0.0377338
0.0325154
0.0272285
0.0224194
0.0183632
0.0150855
0.0124876
0.0104442
0.00883738
0.00755934
0.00652727
0.00569207
0.00500603
0.00443415
0.00397101
0.0036086
0.00332891
0.00311396
0.00295503
0.00284063
0.00276645
0.00272347
0.00270775
0.0027319
0.0027365
0.00263647
0.00237952
0.00175858
0.00102356
0.000430749
2.45692e-05
0.0154634
0.0162304
0.0176718
0.0195757
0.0216908
0.02373
0.0253887
0.026409
0.0266138
0.0259337
0.0244334
0.0222845
0.0197462
0.01712
0.0146425
0.0124443
0.0105649
0.00899337
0.00769616
0.00662727
0.00574631
0.00502962
0.00444384
0.00395529
0.00355232
0.00322707
0.00296703
0.00275877
0.00259118
0.00245681
0.00234974
0.00226583
0.00220046
0.00215223
0.00212199
0.00210846
0.00209657
0.0021083
0.00203969
0.00195173
0.00138966
0.00797344
0.00832342
0.00898039
0.00987756
0.0109412
0.0120801
0.0131764
0.0141001
0.0147282
0.0149631
0.0147651
0.0141497
0.0131906
0.0120113
0.0107407
0.00948384
0.00830908
0.00725183
0.00632428
0.00552171
0.0048362
0.00426691
0.0037971
0.00340191
0.00307141
0.00279786
0.00257241
0.00238706
0.00223353
0.00210533
0.00199729
0.00190516
0.00182512
0.00175373
0.00168829
0.00162763
0.00156995
0.00151912
0.00147581
0.00143425
0.0014091
0.00411144
0.00427076
0.00456938
0.00498529
0.00549755
0.00607952
0.00669176
0.00728336
0.00779628
0.00817187
0.00836669
0.00835701
0.00814371
0.00775714
0.007245
0.00665888
0.00604464
0.00543752
0.00486158
0.00432957
0.00385094
0.0034385
0.00308903
0.00278882
0.00253219
0.00231414
0.00213003
0.00197432
0.00184176
0.0017279
0.00162902
0.00154198
0.00146401
0.00139253
0.00132531
0.00126059
0.00119676
0.00113243
0.00106802
0.000997588
0.000947849
0.00211611
0.00218893
0.00232506
0.00251659
0.00275818
0.00304266
0.00335787
0.00368648
0.00400616
0.00429029
0.00451376
0.00465587
0.0047032
0.00465371
0.00451665
0.00430911
0.00405087
0.0037615
0.00345838
0.00315471
0.00286274
0.00259801
0.00236437
0.00215675
0.001974
0.00181419
0.00167498
0.00155356
0.00144724
0.00135335
0.00126964
0.00119411
0.00112508
0.00106087
0.00100018
0.000941946
0.000885179
0.000829114
0.000773152
0.000714742
0.000665173
0.00108644
0.00112003
0.00118233
0.00127008
0.00138251
0.001518
0.00167284
0.00184152
0.00201637
0.0021871
0.0023425
0.00247166
0.00256481
0.00261522
0.00262027
0.00258193
0.00250574
0.00239865
0.00226863
0.00212325
0.0019708
0.0018229
0.00168494
0.00155657
0.00143904
0.00133258
0.00123654
0.00114984
0.00107169
0.00100085
0.000936173
0.000876669
0.000821471
0.000769674
0.000720566
0.000673665
0.000628461
0.000584624
0.000541819
0.000499035
0.00046223
0.000558784
0.000574275
0.00060285
0.00064301
0.000695125
0.000758969
0.000833375
0.000916589
0.00100612
0.00109834
0.00118888
0.00127303
0.00134586
0.00140289
0.00144063
0.00145715
0.0014523
0.00142767
0.00138557
0.00132882
0.0012612
0.00118932
0.00111734
0.00104631
0.000978044
0.00091348
0.000852983
0.000796662
0.000744236
0.000695441
0.000649928
0.00060734
0.000567333
0.000529533
0.000493625
0.00045946
0.000426832
0.000395597
0.000365584
0.000336449
0.00031102
0.000294631
0.000301943
0.000315492
0.000334523
0.00035951
0.0003905
0.000427053
0.000468549
0.000514139
0.000562529
0.000612049
0.000660812
0.00070666
0.000747323
0.000780662
0.00080495
0.000819012
0.000822341
0.000815234
0.000798345
0.000772877
0.000741863
0.000707691
0.000671452
0.000634597
0.000598076
0.00056246
0.000528081
0.000495121
0.00046369
0.000433769
0.000405314
0.000378279
0.000352559
0.00032806
0.000304776
0.000282658
0.000261634
0.000241659
0.00022258
0.000205722
0.000162628
0.000166284
0.000173109
0.000182693
0.000195408
0.000211328
0.000230252
0.000251918
0.000275997
0.000301972
0.000329154
0.000356747
0.000383793
0.0004092
0.000431834
0.000450639
0.000464733
0.000473474
0.000476524
0.000473867
0.000465793
0.00045352
0.000438214
0.000420569
0.000401532
0.000381754
0.000361694
0.000341694
0.000321969
0.000302735
0.000284104
0.000266119
0.00024885
0.00023229
0.000216441
0.000201334
0.000186995
0.000173368
0.000160472
0.000148218
0.000137274
9.40557e-05
9.59758e-05
9.95773e-05
0.000104638
0.000111426
0.000119995
0.000130235
0.00014201
0.000155172
0.00016949
0.000184652
0.000200299
0.000215994
0.000231209
0.000245373
0.000257907
0.000268278
0.000276025
0.00028081
0.000282412
0.000280791
0.000276425
0.000269843
0.000261445
0.000251772
0.000241201
0.000230055
0.000218607
0.000207063
0.000195549
0.000184217
0.000173146
0.000162415
0.000152048
0.000142075
0.000132537
0.000123481
0.000114861
0.000106713
9.89511e-05
9.20258e-05
5.63774e-05
5.74087e-05
5.93699e-05
6.21438e-05
6.591e-05
7.0706e-05
7.64605e-05
8.30992e-05
9.05424e-05
9.86776e-05
0.000107348
0.000116381
0.000125559
0.000134619
0.000143262
0.000151178
0.00015806
0.000163625
0.000167635
0.000169906
0.00017033
0.000169051
0.00016632
0.000162348
0.000157432
0.000151796
0.00014563
0.000139113
0.0001324
0.000125595
0.000118789
0.000112076
0.000105512
9.91264e-05
9.29491e-05
8.70191e-05
8.13765e-05
7.59852e-05
7.08866e-05
6.59834e-05
6.16906e-05
3.47768e-05
3.534e-05
3.64389e-05
3.80087e-05
4.01697e-05
4.29422e-05
4.62802e-05
5.01369e-05
5.44668e-05
5.92074e-05
6.42747e-05
6.95771e-05
7.50008e-05
8.04074e-05
8.56371e-05
9.05222e-05
9.48885e-05
9.85717e-05
0.000101422
0.000103314
0.000104159
0.000104003
0.000102941
0.000101077
9.85705e-05
9.55496e-05
9.21351e-05
8.84385e-05
8.45668e-05
8.05794e-05
7.65261e-05
7.24929e-05
6.85148e-05
6.46173e-05
6.08247e-05
5.71654e-05
5.36731e-05
5.03205e-05
4.71488e-05
4.40568e-05
4.14533e-05
2.19557e-05
2.22669e-05
2.28963e-05
2.38088e-05
2.50833e-05
2.67301e-05
2.87189e-05
3.10182e-05
3.36005e-05
3.64281e-05
3.94537e-05
4.26248e-05
4.58788e-05
4.91384e-05
5.23158e-05
5.53165e-05
5.8043e-05
6.03984e-05
6.2294e-05
6.36483e-05
6.4405e-05
6.45682e-05
6.41763e-05
6.32858e-05
6.19854e-05
6.03512e-05
5.84521e-05
5.63447e-05
5.41113e-05
5.17731e-05
4.93637e-05
4.6944e-05
4.45441e-05
4.21795e-05
3.98657e-05
3.76229e-05
3.54777e-05
3.34105e-05
3.14562e-05
2.95166e-05
2.79833e-05
1.41285e-05
1.43026e-05
1.467e-05
1.5213e-05
1.59826e-05
1.69842e-05
1.81964e-05
1.95982e-05
2.11716e-05
2.2893e-05
2.47339e-05
2.66624e-05
2.86424e-05
3.06289e-05
3.2572e-05
3.44172e-05
3.61085e-05
3.75898e-05
3.88083e-05
3.97148e-05
4.02719e-05
4.0477e-05
4.03487e-05
3.99206e-05
3.924e-05
3.83459e-05
3.72745e-05
3.6065e-05
3.47508e-05
3.33816e-05
3.1966e-05
3.05027e-05
2.90589e-05
2.76304e-05
2.62245e-05
2.48554e-05
2.35428e-05
2.22712e-05
2.10677e-05
1.98385e-05
1.89528e-05
9.23775e-06
9.33535e-06
9.55327e-06
9.88313e-06
1.03578e-05
1.09795e-05
1.17331e-05
1.26044e-05
1.35811e-05
1.46481e-05
1.57873e-05
1.69791e-05
1.82013e-05
1.94271e-05
2.06268e-05
2.17683e-05
2.2819e-05
2.37455e-05
2.45168e-05
2.51025e-05
2.54817e-05
2.56517e-05
2.56235e-05
2.54137e-05
2.50468e-05
2.45445e-05
2.39283e-05
2.32233e-05
2.24482e-05
2.16409e-05
2.07943e-05
1.99189e-05
1.90442e-05
1.81741e-05
1.73148e-05
1.6474e-05
1.56638e-05
1.48732e-05
1.41247e-05
1.33321e-05
1.28223e-05
6.12091e-06
6.17577e-06
6.30705e-06
6.51137e-06
6.80973e-06
7.20272e-06
7.67954e-06
8.23052e-06
8.847e-06
9.51917e-06
1.0235e-05
1.09822e-05
1.17467e-05
1.25121e-05
1.32603e-05
1.3972e-05
1.46277e-05
1.52075e-05
1.56927e-05
1.60656e-05
1.63136e-05
1.64361e-05
1.64381e-05
1.63286e-05
1.61228e-05
1.58333e-05
1.5474e-05
1.50594e-05
1.46026e-05
1.41117e-05
1.3608e-05
1.30875e-05
1.25423e-05
1.20093e-05
1.1481e-05
1.09599e-05
1.04551e-05
9.95987e-06
9.49219e-06
8.98152e-06
8.69039e-06
4.10137e-06
4.13229e-06
4.21264e-06
4.34152e-06
4.53238e-06
4.78492e-06
5.09152e-06
5.44535e-06
5.84038e-06
6.26998e-06
6.72616e-06
7.20089e-06
7.68508e-06
8.16853e-06
8.63989e-06
9.08749e-06
9.49926e-06
9.86336e-06
1.01687e-05
1.04045e-05
1.05637e-05
1.06458e-05
1.06542e-05
1.05949e-05
1.04768e-05
1.03076e-05
1.00952e-05
9.84729e-06
9.57162e-06
9.27117e-06
8.96587e-06
8.64653e-06
8.31079e-06
7.98251e-06
7.65527e-06
7.33125e-06
7.01725e-06
6.70849e-06
6.41812e-06
6.09423e-06
5.9348e-06
2.77431e-06
2.79171e-06
2.84174e-06
2.92448e-06
3.04863e-06
3.21344e-06
3.41353e-06
3.644e-06
3.90065e-06
4.17888e-06
4.47335e-06
4.77869e-06
5.08897e-06
5.39767e-06
5.69763e-06
5.9816e-06
6.24212e-06
6.47202e-06
6.66452e-06
6.81322e-06
6.91398e-06
6.96718e-06
6.97539e-06
6.94237e-06
6.87315e-06
6.77221e-06
6.64387e-06
6.49248e-06
6.32365e-06
6.13894e-06
5.95216e-06
5.75535e-06
5.55043e-06
5.34584e-06
5.14227e-06
4.94134e-06
4.7464e-06
4.55402e-06
4.3734e-06
4.16626e-06
4.08281e-06
1.89154e-06
1.90145e-06
1.93318e-06
1.98732e-06
2.06939e-06
2.17856e-06
2.31096e-06
2.46308e-06
2.63198e-06
2.8144e-06
3.00678e-06
3.20544e-06
3.40652e-06
3.60571e-06
3.79852e-06
3.98033e-06
4.14658e-06
4.2928e-06
4.41493e-06
4.50906e-06
4.57287e-06
4.60689e-06
4.61302e-06
4.59337e-06
4.55129e-06
4.48931e-06
4.41023e-06
4.31717e-06
4.213e-06
4.10034e-06
3.98078e-06
3.86138e-06
3.73893e-06
3.60621e-06
3.47914e-06
3.35361e-06
3.23039e-06
3.10782e-06
2.99296e-06
2.85593e-06
2.81181e-06
1.29823e-06
1.30405e-06
1.32458e-06
1.36072e-06
1.41586e-06
1.4892e-06
1.57796e-06
1.67964e-06
1.79213e-06
1.91314e-06
2.04024e-06
2.17091e-06
2.30259e-06
2.43244e-06
2.55758e-06
2.67505e-06
2.78202e-06
2.87569e-06
2.95364e-06
3.01347e-06
3.05389e-06
3.07543e-06
3.07942e-06
3.06741e-06
3.04127e-06
3.00282e-06
2.9538e-06
2.89598e-06
2.83104e-06
2.76089e-06
2.68522e-06
2.61097e-06
2.53326e-06
2.44966e-06
2.36933e-06
2.28908e-06
2.20986e-06
2.13071e-06
2.0569e-06
1.96598e-06
1.94239e-06
8.95979e-07
8.99499e-07
9.13137e-07
9.37774e-07
9.75397e-07
1.02534e-06
1.08561e-06
1.1544e-06
1.23016e-06
1.31132e-06
1.39618e-06
1.48302e-06
1.57012e-06
1.6556e-06
1.73758e-06
1.81416e-06
1.88356e-06
1.94404e-06
1.99411e-06
2.03231e-06
2.05794e-06
2.07149e-06
2.07414e-06
2.06669e-06
2.05038e-06
2.02623e-06
1.99529e-06
1.95877e-06
1.91764e-06
1.87318e-06
1.82508e-06
1.77813e-06
1.72854e-06
1.67651e-06
1.62453e-06
1.5728e-06
1.52216e-06
1.47148e-06
1.42438e-06
1.3654e-06
1.35366e-06
6.21152e-07
6.23411e-07
6.32738e-07
6.49888e-07
6.75978e-07
7.10466e-07
7.51895e-07
7.98967e-07
8.50557e-07
9.0556e-07
9.62783e-07
1.02107e-06
1.07923e-06
1.13603e-06
1.19022e-06
1.2406e-06
1.28603e-06
1.32543e-06
1.35789e-06
1.38255e-06
1.39897e-06
1.40758e-06
1.40919e-06
1.40439e-06
1.39392e-06
1.37847e-06
1.35874e-06
1.33546e-06
1.30933e-06
1.281e-06
1.25095e-06
1.2195e-06
1.18879e-06
1.15752e-06
1.12243e-06
1.08954e-06
1.05749e-06
1.02502e-06
9.94818e-07
9.56501e-07
9.51574e-07
4.32169e-07
4.33728e-07
4.40323e-07
4.52512e-07
4.70912e-07
4.9505e-07
5.23869e-07
5.56427e-07
5.91922e-07
6.29567e-07
6.6853e-07
7.08014e-07
7.47208e-07
7.8529e-07
8.21439e-07
8.5488e-07
8.84876e-07
9.10773e-07
9.32e-07
9.48054e-07
9.58645e-07
9.64092e-07
9.65076e-07
9.61916e-07
9.55148e-07
9.45226e-07
9.32572e-07
9.17663e-07
9.00942e-07
8.82786e-07
8.6362e-07
8.43168e-07
8.2358e-07
8.03092e-07
7.8069e-07
7.59631e-07
7.38778e-07
7.17529e-07
6.9777e-07
6.72098e-07
6.70023e-07
3.01506e-07
3.02683e-07
3.07492e-07
3.16349e-07
3.29539e-07
3.46635e-07
3.66902e-07
3.89653e-07
4.14316e-07
4.40321e-07
4.67097e-07
4.94082e-07
5.2073e-07
5.46488e-07
5.70816e-07
5.93206e-07
6.13191e-07
6.30357e-07
6.44342e-07
6.54872e-07
6.61765e-07
6.65322e-07
6.66012e-07
6.64056e-07
6.59752e-07
6.53384e-07
6.45256e-07
6.35683e-07
6.24952e-07
6.13258e-07
6.00897e-07
5.87667e-07
5.75006e-07
5.61656e-07
5.47129e-07
5.33334e-07
5.19542e-07
5.05432e-07
4.92331e-07
4.7497e-07
4.73881e-07
2.1076e-07
2.11715e-07
2.15332e-07
2.21902e-07
2.3148e-07
2.43734e-07
2.58133e-07
2.74184e-07
2.91475e-07
3.09599e-07
3.28159e-07
3.46763e-07
3.65041e-07
3.82615e-07
3.99134e-07
4.14263e-07
4.27709e-07
4.39206e-07
4.4854e-07
4.55529e-07
4.60079e-07
4.62375e-07
4.62803e-07
4.61489e-07
4.58634e-07
4.54434e-07
4.49095e-07
4.42806e-07
4.35764e-07
4.28113e-07
4.20043e-07
4.11368e-07
4.03073e-07
3.94186e-07
3.85048e-07
3.75764e-07
3.66545e-07
3.57249e-07
3.48609e-07
3.3716e-07
3.36094e-07
1.47512e-07
1.48326e-07
1.5112e-07
1.56068e-07
1.63115e-07
1.71988e-07
1.8231e-07
1.93731e-07
2.05951e-07
2.18685e-07
2.31654e-07
2.44589e-07
2.57232e-07
2.6933e-07
2.80649e-07
2.90972e-07
3.0011e-07
3.079e-07
3.14211e-07
3.18953e-07
3.22041e-07
3.23637e-07
3.24019e-07
3.23264e-07
3.21499e-07
3.1886e-07
3.15467e-07
3.11449e-07
3.06939e-07
3.01993e-07
2.96715e-07
2.9114e-07
2.85447e-07
2.79705e-07
2.74006e-07
2.67578e-07
2.61618e-07
2.55609e-07
2.49885e-07
2.42325e-07
2.41446e-07
1.03306e-07
1.0402e-07
1.06222e-07
1.09999e-07
1.15232e-07
1.21708e-07
1.29163e-07
1.37345e-07
1.46042e-07
1.55054e-07
1.64185e-07
1.73248e-07
1.82066e-07
1.9047e-07
1.98299e-07
2.05412e-07
2.11684e-07
2.17006e-07
2.21303e-07
2.24507e-07
2.26587e-07
2.27633e-07
2.2786e-07
2.27318e-07
2.26091e-07
2.24269e-07
2.21957e-07
2.1925e-07
2.16186e-07
2.12834e-07
2.09257e-07
2.05529e-07
2.01655e-07
1.97786e-07
1.93793e-07
1.89679e-07
1.85789e-07
1.8177e-07
1.77855e-07
1.72887e-07
1.71527e-07
7.23534e-08
7.29824e-08
7.4746e-08
7.76544e-08
8.15604e-08
8.63116e-08
9.17144e-08
9.76026e-08
1.03826e-07
1.10247e-07
1.16721e-07
1.23121e-07
1.29321e-07
1.35209e-07
1.40679e-07
1.45641e-07
1.50017e-07
1.53748e-07
1.56786e-07
1.59102e-07
1.60666e-07
1.61528e-07
1.61859e-07
1.61679e-07
1.61047e-07
1.60031e-07
1.58692e-07
1.5704e-07
1.55125e-07
1.52994e-07
1.50685e-07
1.48245e-07
1.45707e-07
1.43038e-07
1.40287e-07
1.37568e-07
1.34943e-07
1.32213e-07
1.29506e-07
1.26171e-07
1.24928e-07
5.06558e-08
5.12066e-08
5.26293e-08
5.48757e-08
5.78037e-08
6.12911e-08
6.52113e-08
6.94524e-08
7.39145e-08
7.85036e-08
8.31213e-08
8.76753e-08
9.20751e-08
9.62392e-08
1.00094e-07
1.03576e-07
1.06633e-07
1.09218e-07
1.11297e-07
1.12848e-07
1.13841e-07
1.14314e-07
1.14398e-07
1.14118e-07
1.1353e-07
1.12693e-07
1.11623e-07
1.10365e-07
1.0895e-07
1.07399e-07
1.05762e-07
1.04053e-07
1.02303e-07
1.00382e-07
9.84513e-08
9.66765e-08
9.49194e-08
9.30887e-08
9.1196e-08
8.91676e-08
8.72084e-08
3.54416e-08
3.59148e-08
3.70543e-08
3.878e-08
4.09633e-08
4.35252e-08
4.63773e-08
4.9439e-08
5.26404e-08
5.59169e-08
5.92065e-08
6.24505e-08
6.55903e-08
6.85686e-08
7.13338e-08
7.38455e-08
7.60751e-08
7.80042e-08
7.96244e-08
8.09328e-08
8.19083e-08
8.25685e-08
8.29892e-08
8.3175e-08
8.3146e-08
8.28977e-08
8.24544e-08
8.18317e-08
8.10506e-08
8.01444e-08
7.91353e-08
7.80178e-08
7.68485e-08
7.54649e-08
7.40451e-08
7.28115e-08
7.15187e-08
7.01508e-08
6.87075e-08
6.72373e-08
6.56796e-08
2.47855e-08
2.51854e-08
2.60841e-08
2.73768e-08
2.89699e-08
3.08212e-08
3.28837e-08
3.51046e-08
3.74269e-08
3.97927e-08
4.21508e-08
4.44577e-08
4.66803e-08
4.87869e-08
5.07452e-08
5.25164e-08
5.40622e-08
5.53467e-08
5.63436e-08
5.70485e-08
5.74353e-08
5.75322e-08
5.74329e-08
5.71681e-08
5.67544e-08
5.62303e-08
5.56163e-08
5.49345e-08
5.4216e-08
5.34759e-08
5.27047e-08
5.19041e-08
5.10993e-08
5.02117e-08
4.92703e-08
4.85171e-08
4.77022e-08
4.68754e-08
4.5931e-08
4.53239e-08
4.29586e-08
1.73313e-08
1.76699e-08
1.83757e-08
1.93262e-08
2.04456e-08
2.17219e-08
2.31458e-08
2.46988e-08
2.63575e-08
2.80839e-08
2.98302e-08
3.15433e-08
3.31801e-08
3.4712e-08
3.61328e-08
3.74504e-08
3.86801e-08
3.9833e-08
4.09096e-08
4.19056e-08
4.27927e-08
4.35628e-08
4.42309e-08
4.47486e-08
4.51031e-08
4.52909e-08
4.53168e-08
4.52038e-08
4.49621e-08
4.45944e-08
4.41121e-08
4.35488e-08
4.28904e-08
4.22267e-08
4.13033e-08
4.04027e-08
3.96382e-08
3.88011e-08
3.78573e-08
3.70584e-08
3.55338e-08
1.21079e-08
1.23836e-08
1.29349e-08
1.36391e-08
1.44326e-08
1.53041e-08
1.62435e-08
1.72452e-08
1.83111e-08
1.94445e-08
2.06416e-08
2.18843e-08
2.31348e-08
2.4337e-08
2.54246e-08
2.63359e-08
2.70279e-08
2.74834e-08
2.77115e-08
2.7743e-08
2.75945e-08
2.73107e-08
2.69416e-08
2.6527e-08
2.60887e-08
2.56427e-08
2.52114e-08
2.47985e-08
2.44024e-08
2.40247e-08
2.36704e-08
2.33413e-08
2.30198e-08
2.27316e-08
2.23276e-08
2.19486e-08
2.17166e-08
2.14668e-08
2.10499e-08
2.11246e-08
1.88309e-08
8.45243e-09
8.63615e-09
9.01427e-09
9.49947e-09
1.00624e-08
1.07027e-08
1.14004e-08
1.21253e-08
1.28496e-08
1.35554e-08
1.4241e-08
1.49236e-08
1.56343e-08
1.64099e-08
1.72822e-08
1.82701e-08
1.93735e-08
2.05729e-08
2.18309e-08
2.30984e-08
2.43313e-08
2.54758e-08
2.65075e-08
2.73792e-08
2.807e-08
2.85781e-08
2.89029e-08
2.90518e-08
2.90371e-08
2.8877e-08
2.85925e-08
2.81943e-08
2.76873e-08
2.71105e-08
2.63472e-08
2.5532e-08
2.48097e-08
2.40099e-08
2.31093e-08
2.23309e-08
2.09612e-08
5.93825e-09
6.03177e-09
6.22092e-09
6.44027e-09
6.70108e-09
7.04303e-09
7.49125e-09
8.05386e-09
8.71799e-09
9.44521e-09
1.01725e-08
1.08246e-08
1.13307e-08
1.16425e-08
1.17464e-08
1.16631e-08
1.14383e-08
1.11266e-08
1.07765e-08
1.04318e-08
1.00837e-08
9.74229e-09
9.4043e-09
9.08443e-09
8.78742e-09
8.50868e-09
8.25536e-09
8.03249e-09
7.84334e-09
7.68339e-09
7.55474e-09
7.45316e-09
7.36719e-09
7.3126e-09
7.22743e-09
7.16639e-09
7.17092e-09
7.18934e-09
7.10757e-09
7.45777e-09
5.96497e-09
4.2568e-09
4.34456e-09
4.46589e-09
4.53683e-09
4.55492e-09
4.55347e-09
4.56213e-09
4.61089e-09
4.73441e-09
4.974e-09
5.37566e-09
5.98603e-09
6.84338e-09
7.96828e-09
9.35362e-09
1.09605e-08
1.27197e-08
1.45402e-08
1.63235e-08
1.79678e-08
1.94393e-08
2.07127e-08
2.17459e-08
2.25323e-08
2.30939e-08
2.34631e-08
2.36593e-08
2.37156e-08
2.36305e-08
2.34332e-08
2.31394e-08
2.27375e-08
2.22342e-08
2.16697e-08
2.10351e-08
2.03174e-08
1.95955e-08
1.88627e-08
1.80651e-08
1.75357e-08
1.57311e-08
3.1385e-09
3.2567e-09
3.43222e-09
3.58304e-09
3.66545e-09
3.66311e-09
3.57137e-09
3.40355e-09
3.19213e-09
2.97999e-09
2.81088e-09
2.72072e-09
2.73113e-09
2.84659e-09
3.05425e-09
3.32711e-09
3.62914e-09
3.92355e-09
4.17886e-09
4.37876e-09
4.50253e-09
4.5505e-09
4.507e-09
4.40968e-09
4.28816e-09
4.15014e-09
3.9998e-09
3.87736e-09
3.81914e-09
3.79663e-09
3.76903e-09
3.72974e-09
3.6992e-09
3.66724e-09
3.62492e-09
3.58836e-09
3.54545e-09
3.47384e-09
3.41308e-09
3.22481e-09
3.40705e-09
2.33701e-09
2.31909e-09
2.47852e-09
3.02356e-09
4.15338e-09
5.97354e-09
8.45179e-09
1.14381e-08
1.47111e-08
1.80244e-08
2.1144e-08
2.38748e-08
2.60797e-08
2.76832e-08
2.86705e-08
2.90776e-08
2.89791e-08
2.84688e-08
2.7649e-08
2.66042e-08
2.54271e-08
2.44109e-08
2.33732e-08
2.23743e-08
2.14168e-08
2.04817e-08
1.95859e-08
1.86151e-08
1.75604e-08
1.65015e-08
1.54738e-08
1.44962e-08
1.35543e-08
1.26075e-08
1.1683e-08
1.07838e-08
9.86671e-09
8.92668e-09
7.95556e-09
7.17931e-09
6.51328e-09
4382.67
3083.6
1894.25
1289
948.222
721.269
553.433
421.477
314.731
227.708
156.641
99.6966
57.5195
29.6946
12.9974
3.37889
0.216067
0.014035
0.0952264
0.448939
0.867194
0.896332
0.589954
0.247789
0.0531703
0.0019289
0.000954056
0.000260799
0.000130767
2.30304e-08
4.78903e-12
2.24581e-06
7.9825e-06
7.48433e-06
6.16791e-06
4.90693e-06
4.29485e-06
3.16776e-06
2.6116e-06
2.48881e-06
2.52279e-06
1.87291e-06
1.69837e-06
1.43118e-06
1.36865e-06
1.75177e-06
1.65042e-06
1.12592e-06
6.47056e-07
4.1474e-07
3.30583e-07
3.42583e-07
2.98804e-07
2.40262e-07
2.22212e-07
2.4535e-07
2.36385e-07
2.73177e-07
2.29655e-07
2.05868e-07
1.88547e-07
1.80933e-07
1.67531e-07
1.55849e-07
1.41037e-07
1.20389e-07
9.58319e-08
7.17146e-08
5.061e-08
3.30638e-08
1.97453e-08
8.95641e-09
5.13241e-09
1.63417e-09
408.516
1206.83
1246.03
1054.11
864.016
712.155
592.663
493.715
407.442
330.33
260.54
196.738
140.086
93.7943
59.1283
30.1582
8.17456
2.34832
2.42301
2.88539
3.19772
2.991
2.28109
1.38509
0.627327
0.180204
0.0210857
0.000245982
0.000574269
3.71607e-06
2.50021e-07
6.40471e-09
4.13811e-07
5.96554e-06
8.97627e-06
5.93723e-06
3.88696e-06
2.81326e-06
2.5958e-06
2.513e-06
2.41276e-06
1.71285e-06
1.46634e-06
1.37237e-06
1.31675e-06
1.81715e-06
1.44921e-06
1.0571e-06
6.93224e-07
4.91765e-07
3.5834e-07
3.10472e-07
2.70927e-07
2.70074e-07
3.03397e-07
3.59976e-07
3.16471e-07
3.19783e-07
2.53246e-07
2.19842e-07
1.99536e-07
1.89988e-07
1.71888e-07
1.56383e-07
1.39221e-07
1.16465e-07
9.06833e-08
6.60727e-08
4.54432e-08
2.8757e-08
1.68039e-08
7.75004e-09
4.79346e-09
1.99226e-09
258.014
57.3585
124.501
231.097
299.607
330.032
338.919
335.207
321.537
299.412
270.578
235.993
196.695
156.242
120.226
86.2046
46.1448
19.8266
13.2811
10.47
8.40212
6.89588
5.45302
3.91951
2.43608
1.22789
0.446956
0.0944227
0.00607477
0.000299066
5.85125e-05
0.000114609
5.96803e-07
5.89357e-08
1.21089e-06
5.25967e-06
4.82123e-06
3.11627e-06
2.51093e-06
2.2961e-06
2.13965e-06
1.65165e-06
1.39076e-06
1.37851e-06
1.27862e-06
1.08876e-06
9.36679e-07
7.81199e-07
6.07219e-07
4.96162e-07
3.7859e-07
3.1882e-07
2.8801e-07
2.85537e-07
3.17135e-07
3.56257e-07
3.57826e-07
3.19896e-07
2.75353e-07
2.36459e-07
2.09529e-07
1.95535e-07
1.74293e-07
1.55809e-07
1.36383e-07
1.12779e-07
8.6926e-08
6.21617e-08
4.18113e-08
2.57474e-08
1.4912e-08
7.10283e-09
4.79134e-09
2.36565e-09
601.829
401.505
190.899
64.9413
18.5379
19.1703
41.4423
72.4053
104.252
131.734
151.914
163.376
165.054
156.739
142.155
124.287
95.7278
59.6535
39.3764
28.8781
20.5322
14.9141
11.2351
8.43957
6.02136
3.89498
2.15991
0.943195
0.27844
0.040875
0.000927288
0.000235657
6.71961e-05
9.04909e-08
4.46533e-08
2.67268e-09
1.19523e-06
3.34455e-06
3.50948e-06
2.56806e-06
1.93431e-06
1.54695e-06
1.40501e-06
1.43465e-06
1.304e-06
8.70266e-07
6.3586e-07
5.00061e-07
4.25644e-07
4.09345e-07
3.65558e-07
3.34717e-07
3.15406e-07
2.9566e-07
2.95829e-07
2.95384e-07
3.15989e-07
3.17963e-07
2.90136e-07
2.52735e-07
2.18322e-07
1.97778e-07
1.73762e-07
1.52976e-07
1.32294e-07
1.08957e-07
8.41596e-08
6.00681e-08
4.0103e-08
2.44107e-08
1.43002e-08
7.14745e-09
5.09994e-09
2.57544e-09
663.874
603.917
492.917
370.752
246.72
143.59
70.5505
26.2229
6.14627
4.62207
15.6982
34.1798
55.5318
75.0523
88.9957
96.6917
96.6126
85.0053
69.0112
55.6712
41.6381
29.558
21.2532
15.7292
11.717
8.4837
5.74496
3.47642
1.76431
0.681643
0.170069
0.0191923
0.000253151
0.000175651
1.22476e-06
5.76853e-08
4.30499e-09
2.59799e-09
6.78679e-07
2.37918e-06
2.58072e-06
1.95332e-06
1.5343e-06
1.4117e-06
1.24921e-06
8.5047e-07
5.4407e-07
3.79197e-07
3.29559e-07
3.3819e-07
3.24789e-07
3.17242e-07
3.27001e-07
3.27878e-07
3.2879e-07
3.07116e-07
2.98324e-07
3.016e-07
2.90933e-07
2.64022e-07
2.26706e-07
1.9869e-07
1.70667e-07
1.47399e-07
1.26182e-07
1.04016e-07
8.11777e-08
5.87186e-08
3.96261e-08
2.4367e-08
1.47106e-08
7.83355e-09
5.77255e-09
2.69053e-09
587.602
533.833
479.224
435.845
387.815
329.858
265.225
198.272
134.857
80.9659
40.4927
14.6327
2.56428
2.35553
10.7296
23.3426
37.1614
50.9347
60.2246
62.7982
57.2293
45.712
34.2446
25.5314
19.3224
14.7104
11.0124
7.87413
5.19068
3.019
1.45447
0.527394
0.123287
0.0131074
0.000135714
6.33858e-05
0.000194671
4.11522e-08
4.72226e-09
1.1886e-12
2.14821e-07
1.36143e-06
2.11792e-06
1.89743e-06
1.34834e-06
8.31326e-07
5.05363e-07
3.41618e-07
2.98761e-07
3.15287e-07
3.19314e-07
3.27601e-07
3.5208e-07
3.64797e-07
3.70934e-07
3.4104e-07
3.11223e-07
2.95312e-07
2.86284e-07
2.70373e-07
2.37001e-07
2.03726e-07
1.69439e-07
1.41465e-07
1.18775e-07
9.78381e-08
7.74332e-08
5.74168e-08
3.97687e-08
2.51713e-08
1.59015e-08
9.11533e-09
6.92149e-09
2.93936e-09
282.471
244.07
216.197
205.582
203.802
206.36
209.322
208.12
198.67
179.217
150.674
116.269
80.3808
47.6654
22.331
6.93664
0.7515
2.25313
11.1816
24.4565
36.0548
40.4073
37.4832
31.4534
25.4483
20.4491
16.3827
12.9394
9.87894
7.11642
4.6876
2.71069
1.30014
0.474335
0.115534
0.0143021
0.000434392
3.91202e-05
1.27372e-09
1.68118e-07
1.25806e-09
8.85348e-09
1.99566e-07
8.36409e-07
1.45031e-06
1.11416e-06
6.486e-07
3.91047e-07
3.04927e-07
3.08039e-07
3.2897e-07
3.56968e-07
3.87588e-07
3.9438e-07
3.93126e-07
3.6071e-07
3.27306e-07
2.98899e-07
2.82471e-07
2.73065e-07
2.4927e-07
2.16697e-07
1.76399e-07
1.40987e-07
1.1376e-07
9.21043e-08
7.34023e-08
5.60311e-08
4.02491e-08
2.65384e-08
1.76537e-08
1.08791e-08
8.52818e-09
3.43894e-09
33.8167
27.8695
23.432
22.0104
22.5262
24.9006
29.6585
37.1632
47.4073
59.7681
72.6695
83.57
89.5206
88.0918
78.4112
62.487
44.1787
26.1418
10.5077
1.55342
1.25867
6.93073
13.9573
18.5315
19.8508
19.0489
17.3168
15.2783
13.1377
10.9336
8.67542
6.43471
4.3456
2.57586
1.27606
0.490557
0.130416
0.0192172
0.000864604
1.76444e-05
0.000171192
5.01514e-05
8.87361e-10
4.24666e-09
7.60219e-08
3.02748e-07
6.36601e-07
6.08901e-07
4.63971e-07
3.74199e-07
3.42922e-07
3.64732e-07
4.10346e-07
4.27638e-07
4.19235e-07
3.75823e-07
3.34029e-07
2.97835e-07
2.7369e-07
2.66731e-07
2.55104e-07
2.32046e-07
1.92225e-07
1.50528e-07
1.16395e-07
9.06966e-08
7.11644e-08
5.52279e-08
4.11149e-08
2.83726e-08
1.98464e-08
1.30298e-08
1.0529e-08
4.21299e-09
0.47505
0.319141
0.208448
0.162968
0.147871
0.153279
0.196047
0.310858
0.57429
1.14667
2.32904
4.59477
8.46585
14.2818
21.7675
29.7633
36.4805
39.9417
37.9963
29.7544
18.1573
7.9776
1.88566
0.300969
2.00091
4.9842
7.68385
9.45868
10.2954
10.3775
9.85641
8.84461
7.44533
5.79526
4.08909
2.53709
1.32525
0.548223
0.163379
0.0297398
0.00221599
8.14757e-06
0.000148919
9.10583e-05
3.52017e-07
1.25688e-09
3.54819e-11
3.56921e-08
2.03329e-07
4.08579e-07
4.78791e-07
4.81274e-07
4.71715e-07
4.52737e-07
4.32668e-07
3.88333e-07
3.41814e-07
2.98903e-07
2.64934e-07
2.51977e-07
2.45848e-07
2.35637e-07
2.06192e-07
1.66327e-07
1.2818e-07
9.72463e-08
7.41287e-08
5.70665e-08
4.31828e-08
3.08918e-08
2.25368e-08
1.56114e-08
1.29822e-08
5.31436e-09
0.00390593
0.00184769
0.000812061
0.000520564
7.25649e-07
1.00838e-05
6.08311e-07
0.00085473
0.00158488
0.00351286
0.00380077
0.00591498
0.0118484
0.0629222
0.240085
0.733331
1.87699
4.06433
7.47259
11.568
14.9661
16.2416
14.8513
11.2024
6.55148
2.55938
0.415573
0.253365
1.4248
3.12841
4.75636
5.9638
6.59274
6.60264
6.04797
5.04891
3.7944
2.51201
1.4149