/*--------------------------------*- C++ -*----------------------------------*\
| =========                 |                                                 |
| \\      /  F ield         | OpenFOAM: The Open Source CFD Toolbox           |
|  \\    /   O peration     | Version:  2312                                  |
|   \\  /    A nd           | Website:  www.openfoam.com                      |
|    \\/     M anipulation  |                                                 |
\*---------------------------------------------------------------------------*/
FoamFile
{
    version     2.0;
    format      ascii;
    arch        "LSB;label=32;scalar=64";
    class       volVectorField;
    location    "100";
    object      U;
}
// * * * * * * * * * * * * * * * * * * * * * * * * * * * * * * * * * * * * * //

dimensions      [0 1 -1 0 0 0 0];

internalField   nonuniform List<vector> 
11040
(
(2.07063 34.715 4.86041e-19)
(10.7034 38.3371 -3.76626e-17)
(15.6519 31.1062 -4.2668e-17)
(15.4795 20.1489 3.41786e-18)
(12.0226 10.5208 0)
(7.88243 4.14107 6.87937e-18)
(5.35773 0.722002 1.61153e-16)
(5.17445 -1.38328 5.6939e-16)
(7.4556 -1.57927 -1.91187e-16)
(9.02783 -0.974512 -1.3623e-16)
(10.4097 -0.101443 -1.81928e-16)
(11.9287 0.63834 3.6069e-19)
(13.3809 1.056 5.9094e-17)
(14.5843 1.1884 4.80341e-17)
(15.5195 1.13766 1.47622e-19)
(16.2328 0.977573 2.62194e-18)
(16.7599 0.747357 -2.17235e-20)
(17.1153 0.470343 0)
(17.2993 0.162976 6.29279e-21)
(17.3206 -0.158349 2.18205e-18)
(17.1014 -0.481557 -1.33667e-19)
(16.7013 -0.769148 -1.3982e-17)
(16.2634 -0.98617 6.91999e-19)
(15.8577 -1.14853 -2.22561e-17)
(15.4646 -1.28151 2.02884e-17)
(15.0428 -1.39396 5.93037e-19)
(14.5867 -1.48775 1.75423e-17)
(14.095 -1.56304 0)
(13.5647 -1.62037 0)
(12.9901 -1.65937 -1.3367e-17)
(12.3656 -1.67962 -2.53793e-17)
(11.6837 -1.67981 0)
(10.938 -1.65836 -3.94843e-17)
(10.1183 -1.61303 0)
(9.21434 -1.54127 -1.39753e-17)
(8.22593 -1.4408 -1.07052e-17)
(7.14526 -1.30767 0)
(6.01185 -1.14627 0)
(4.72096 -0.932042 -7.35418e-21)
(3.72664 -0.699888 8.64833e-21)
(0.513083 -0.980115 1.0256e-17)
(10.5805 29.7332 -4.49485e-19)
(24.3307 30.3715 4.55072e-18)
(33.5069 27.8915 5.45681e-17)
(36.4774 24.7427 2.1808e-17)
(35.4537 21.0671 0)
(32.5435 16.9266 2.81759e-17)
(29.1892 12.8331 3.30521e-17)
(26.4674 9.42085 -4.40179e-17)
(24.6213 6.91958 4.15679e-17)
(23.3519 5.31861 4.34177e-19)
(22.5516 4.37587 3.95203e-17)
(22.1839 3.72469 -6.41818e-17)
(22.1075 3.16336 -3.32979e-17)
(22.145 2.64782 -2.39903e-17)
(22.1913 2.17112 9.6601e-18)
(22.2052 1.72065 5.93719e-18)
(22.1596 1.28477 8.14296e-18)
(22.0298 0.859011 -1.23377e-18)
(21.7967 0.442381 1.21444e-18)
(21.4477 0.0395524 -1.3094e-18)
(20.9948 -0.346737 4.00533e-18)
(20.4448 -0.679535 8.33725e-18)
(19.8645 -0.930544 -6.90513e-18)
(19.3135 -1.13236 -1.29203e-17)
(18.7938 -1.30712 -1.27743e-17)
(18.2714 -1.45529 1.196e-17)
(17.7371 -1.57838 0)
(17.1847 -1.67792 0)
(16.608 -1.75571 8.82908e-18)
(16.0003 -1.81198 7.77042e-18)
(15.3546 -1.84705 7.45911e-18)
(14.6626 -1.85995 1.27845e-17)
(13.9157 -1.84928 1.10392e-17)
(13.102 -1.81293 0)
(12.2076 -1.74864 -5.96662e-20)
(11.2257 -1.65392 5.61177e-18)
(10.1397 -1.52531 0)
(8.97286 -1.36695 0)
(7.60626 -1.15709 0)
(6.47286 -0.944554 0)
(4.09807 -0.862579 -9.74751e-18)
(12.8346 26.2283 5.90654e-19)
(20.6318 29.2105 2.06446e-17)
(27.9004 28.8051 -2.15699e-17)
(33.3658 26.9347 -1.95024e-17)
(37.0355 24.569 1.73976e-17)
(39.1658 21.8065 -1.52474e-18)
(39.9993 18.6963 -2.04463e-17)
(39.9171 15.503 -5.19982e-18)
(39.3474 12.526 5.70269e-18)
(38.489 10.0794 0)
(37.4646 8.22978 0)
(36.394 6.80436 3.91001e-17)
(35.2949 5.61549 0)
(34.1315 4.56711 0)
(32.8956 3.62124 -8.6581e-18)
(31.6241 2.76176 -6.21827e-18)
(30.3674 1.98214 -2.02764e-18)
(29.1677 1.28079 -7.44973e-18)
(28.0436 0.65412 -3.51895e-18)
(26.9901 0.097709 1.7788e-18)
(25.9693 -0.395812 -5.99232e-18)
(24.9894 -0.8007 -2.79801e-18)
(24.0976 -1.09908 3.8605e-18)
(23.293 -1.33265 9.15628e-18)
(22.551 -1.52779 9.6581e-18)
(21.8305 -1.68971 -8.41429e-18)
(21.1186 -1.82309 0)
(20.4084 -1.93071 0)
(19.6927 -2.01468 -6.5262e-18)
(18.9628 -2.07517 5.91485e-18)
(18.2095 -2.11253 -1.05713e-17)
(17.423 -2.12562 2.5169e-20)
(16.5934 -2.11301 0)
(15.7081 -2.07219 -6.78941e-18)
(14.7538 -2.00117 5.3986e-18)
(13.725 -1.89784 6.66663e-20)
(12.6067 -1.76045 -3.97823e-20)
(11.4165 -1.59106 -1.09168e-18)
(10.0418 -1.37819 -4.02156e-21)
(8.85961 -1.16039 1.8297e-18)
(6.62064 -1.10291 3.11787e-18)
(14.7111 22.9856 -6.86956e-19)
(20.3933 25.7836 -8.36898e-18)
(26.2301 26.2486 1.05936e-17)
(31.0232 24.9019 1.28046e-17)
(34.6475 22.8167 -1.59702e-17)
(37.4596 20.5905 -1.97965e-17)
(39.6241 18.263 3.80945e-18)
(41.0623 15.7688 0)
(41.7103 13.2359 0)
(41.6761 10.9826 1.61956e-17)
(41.2548 9.1983 0)
(40.7321 7.80925 -1.5204e-17)
(40.222 6.65001 0)
(39.7021 5.61332 -1.357e-17)
(39.1157 4.65271 0)
(38.4205 3.74679 6.24053e-18)
(37.5865 2.88339 8.73624e-18)
(36.5932 2.05956 2.17256e-20)
(35.4293 1.27848 2.73349e-18)
(34.1025 0.549479 1.20118e-18)
(32.6203 -0.118496 1.10192e-18)
(31.095 -0.6803 4.36185e-18)
(29.6664 -1.1021 0)
(28.375 -1.42397 6.70683e-18)
(27.2135 -1.68035 9.14763e-19)
(26.153 -1.88511 1.40294e-17)
(25.1673 -2.04813 -8.02046e-19)
(24.2343 -2.17576 5.6104e-18)
(23.3335 -2.2724 -5.11168e-18)
(22.446 -2.33985 -9.22229e-18)
(21.5555 -2.37949 4.10544e-18)
(20.6471 -2.39124 -1.44079e-17)
(19.7086 -2.37434 -1.75428e-19)
(18.7254 -2.32667 1.45479e-19)
(17.684 -2.24649 -5.46649e-20)
(16.5791 -2.13202 1.40482e-19)
(15.3978 -1.98323 -3.91548e-20)
(14.1537 -1.80022 -5.75283e-20)
(12.7466 -1.58216 2.66777e-21)
(11.4962 -1.34569 -4.29455e-20)
(9.34703 -1.21226 0)
(16.6093 20.2677 0)
(20.5248 22.6404 -1.26751e-18)
(24.9731 23.7333 -1.64198e-17)
(29.2005 23.3404 -2.45407e-17)
(32.6293 21.9401 2.57901e-17)
(35.2529 20.0702 -1.10964e-17)
(37.2822 17.978 0)
(38.7774 15.7367 0)
(39.6653 13.4477 -1.27734e-17)
(39.9367 11.3221 -2.64969e-17)
(39.7705 9.53214 -1.2693e-17)
(39.4228 8.07617 0)
(39.0557 6.84952 0)
(38.7083 5.76513 1.42618e-17)
(38.3675 4.77977 -2.7929e-18)
(38.0194 3.87102 1.03122e-17)
(37.6533 3.02154 -4.98747e-18)
(37.2516 2.22017 0)
(36.7882 1.46142 0)
(36.2313 0.746218 0)
(35.5379 0.0753156 -1.91958e-18)
(34.7093 -0.514161 -3.53306e-18)
(33.7984 -0.985454 0)
(32.8391 -1.36594 6.14278e-18)
(31.8506 -1.68222 -1.06813e-17)
(30.8362 -1.94454 -6.58355e-18)
(29.8027 -2.15908 -3.62069e-18)
(28.7589 -2.3305 -5.02624e-18)
(27.7104 -2.4627 4.04035e-18)
(26.6592 -2.55769 7.27473e-18)
(25.6038 -2.61729 0)
(24.5396 -2.64226 5.83018e-18)
(23.4598 -2.63261 -1.65746e-19)
(22.3516 -2.58682 -3.0567e-20)
(21.2017 -2.5033 0)
(20.0033 -2.38045 -2.3345e-18)
(18.7428 -2.21962 0)
(17.4268 -2.0202 6.62787e-19)
(15.9663 -1.78939 0)
(14.6382 -1.53008 -6.64626e-20)
(12.5136 -1.31261 1.42411e-18)
(18.1175 18.0141 0)
(20.9168 19.8902 0)
(24.163 21.1897 5.24274e-18)
(27.604 21.5169 1.19479e-17)
(30.7835 20.8862 -2.25422e-17)
(33.4263 19.564 1.81604e-17)
(35.5106 17.8143 -8.89904e-18)
(37.0681 15.8078 1.44552e-17)
(38.0858 13.684 5.52304e-19)
(38.5622 11.627 1.60412e-17)
(38.6021 9.81248 1.05384e-17)
(38.394 8.29659 0)
(38.0947 7.02378 -4.7026e-18)
(37.7709 5.91594 9.29175e-18)
(37.4297 4.92024 -1.77798e-17)
(37.0678 4.0075 -4.26852e-18)
(36.6858 3.15817 -4.00398e-18)
(36.2834 2.35946 4.02838e-18)
(35.8571 1.60478 -8.20909e-20)
(35.4024 0.893783 -2.34786e-19)
(34.9146 0.22729 -1.0032e-18)
(34.4025 -0.361935 1.47078e-18)
(33.8807 -0.843784 0)
(33.3557 -1.24142 1.24839e-18)
(32.8269 -1.57911 7.21739e-18)
(32.2821 -1.86763 -1.1515e-18)
(31.7091 -2.11252 3.07751e-18)
(31.0989 -2.31754 9.22263e-20)
(30.4435 -2.48539 8.69375e-19)
(29.7351 -2.61664 -2.94873e-18)
(28.9665 -2.71111 3.03302e-19)
(28.131 -2.768 -3.04277e-19)
(27.223 -2.78593 0)
(26.2336 -2.76266 3.34597e-18)
(25.1551 -2.6958 -2.46971e-19)
(23.9867 -2.58321 2.09189e-20)
(22.7238 -2.42641 1.33916e-18)
(21.3758 -2.22471 -2.39656e-20)
(19.8724 -1.99091 -4.68046e-21)
(18.4683 -1.71625 -6.56502e-19)
(16.3347 -1.47071 -1.03445e-18)
(19.4104 16.123 5.00545e-20)
(21.4985 17.5667 -7.10857e-19)
(23.8769 18.7644 2.03696e-18)
(26.5563 19.3938 0)
(29.2886 19.2923 0)
(31.79 18.5328 -7.49774e-18)
(33.911 17.2793 7.85234e-18)
(35.5963 15.6824 -1.51975e-17)
(36.8091 13.8771 -7.89523e-18)
(37.5317 12.025 7.99775e-18)
(37.8185 10.2936 -7.75069e-18)
(37.8022 8.77476 7.70729e-18)
(37.6238 7.46504 -7.81906e-18)
(37.3697 6.31614 2.99728e-19)
(37.0693 5.28232 1.42758e-17)
(36.7284 4.33566 -2.60783e-19)
(36.3501 3.45821 6.55899e-18)
(35.9358 2.63736 -3.09365e-18)
(35.4833 1.86557 6.1724e-18)
(34.9895 1.14103 -1.4178e-18)
(34.4523 0.464974 -6.75315e-19)
(33.8958 -0.131874 1.24594e-18)
(33.3478 -0.624783 2.33188e-18)
(32.8188 -1.03344 0)
(32.3156 -1.37974 1.93683e-18)
(31.834 -1.67652 -1.94607e-18)
(31.3678 -1.93059 8.1336e-19)
(30.9123 -2.14666 2.27576e-18)
(30.4629 -2.32815 0)
(30.0134 -2.47641 -2.48778e-18)
(29.5555 -2.59145 -1.67911e-18)
(29.0792 -2.67232 -2.41059e-18)
(28.5725 -2.71722 1.61388e-18)
(28.019 -2.72343 2.66441e-18)
(27.3987 -2.68742 2.11595e-18)
(26.6927 -2.60517 -1.50418e-18)
(25.8748 -2.47576 -1.07562e-18)
(24.9335 -2.29571 -5.87244e-19)
(23.7829 -2.08246 -1.41823e-19)
(22.628 -1.80703 0)
(20.7614 -1.60795 -6.08927e-19)
(20.4969 14.519 -4.25022e-20)
(22.1126 15.6228 5.51938e-19)
(23.8897 16.6237 -1.69398e-18)
(25.9176 17.3293 -3.02485e-18)
(28.1183 17.5637 -7.46254e-18)
(30.3015 17.2684 7.34053e-18)
(32.3034 16.4936 1.44722e-17)
(34.0169 15.3296 1.20313e-17)
(35.3699 13.8839 3.10797e-19)
(36.3147 12.2894 -1.21187e-17)
(36.857 10.6946 1.85136e-17)
(37.0729 9.21052 0)
(37.0709 7.88072 -1.79206e-17)
(36.9402 6.69674 1.19648e-17)
(36.7285 5.63004 5.58212e-18)
(36.4554 4.65643 -1.66624e-17)
(36.1299 3.7585 -5.39926e-18)
(35.7572 2.92307 2.51585e-18)
(35.3378 2.14118 2.4051e-18)
(34.8695 1.40924 5.64175e-18)
(34.3487 0.728181 -8.68058e-18)
(33.7985 0.126182 2.2498e-18)
(33.247 -0.376145 1.95793e-18)
(32.7036 -0.795344 0)
(32.1769 -1.14957 1.64597e-18)
(31.6667 -1.45204 -1.46532e-18)
(31.1697 -1.71023 1.4734e-18)
(30.6844 -1.92917 -2.27305e-20)
(30.2104 -2.11274 -2.31674e-18)
(29.7472 -2.26322 -4.78959e-19)
(29.2945 -2.38149 4.60922e-18)
(28.8525 -2.46731 1.17412e-18)
(28.4212 -2.51963 -1.05129e-18)
(27.9995 -2.53666 -2.31005e-18)
(27.5839 -2.51577 -2.0779e-19)
(27.1706 -2.4532 -6.44775e-20)
(26.7424 -2.34771 0)
(26.2924 -2.19204 -9.03293e-20)
(25.7343 -2.00758 1.0393e-19)
(25.1838 -1.74264 4.78382e-21)
(24.1403 -1.59157 4.67193e-19)
(21.4216 13.1363 3.67059e-20)
(22.7102 13.9791 0)
(24.0767 14.7741 -1.42569e-18)
(25.6143 15.4184 0)
(27.3292 15.784 8.35976e-20)
(29.1313 15.7799 -1.69694e-18)
(30.8979 15.3813 -8.30696e-18)
(32.5175 14.6186 0)
(33.9004 13.5529 9.46415e-19)
(34.9785 12.2763 -1.81722e-17)
(35.7214 10.9055 -5.136e-18)
(36.1542 9.5461 1.38996e-17)
(36.3429 8.26668 4.85213e-18)
(36.3603 7.09282 -4.45166e-18)
(36.2602 6.01962 4.37367e-18)
(36.0736 5.03352 4.47283e-18)
(35.8174 4.12172 8.28866e-18)
(35.5019 3.2735 -1.02292e-17)
(35.1321 2.48071 2.02492e-18)
(34.7091 1.73921 0)
(34.2315 1.04948 4.31203e-19)
(33.7216 0.438296 -8.32493e-19)
(33.2048 -0.0763791 6.48815e-19)
(32.6882 -0.509382 -2.30575e-19)
(32.1804 -0.875518 4.02819e-18)
(31.6832 -1.18731 -2.59939e-18)
(31.1945 -1.45266 0)
(30.7127 -1.67677 9.73867e-19)
(30.2371 -1.86366 1.81188e-18)
(29.7668 -2.01608 8.12185e-19)
(29.3014 -2.13546 -2.23545e-18)
(28.841 -2.22222 7.12744e-19)
(28.3869 -2.27609 0)
(27.9409 -2.29634 9.65393e-19)
(27.5067 -2.28176 -1.53424e-18)
(27.0922 -2.22993 7.22985e-20)
(26.7004 -2.14085 -1.28659e-19)
(26.345 -2.00614 1.055e-18)
(25.9968 -1.84476 2.45329e-20)
(25.7136 -1.60541 0)
(25.313 -1.44279 1.9381e-19)
(22.2065 11.9316 -2.88504e-20)
(23.2563 12.5754 3.022e-20)
(24.3361 13.1922 2.98712e-19)
(25.5194 13.7291 2.36328e-18)
(26.8401 14.1092 9.74558e-19)
(28.2705 14.256 -3.34703e-18)
(29.744 14.1197 0)
(31.1765 13.6848 1.12932e-17)
(32.4853 12.9697 -1.80552e-17)
(33.5968 12.0229 6.69147e-18)
(34.4598 10.9216 -6.54678e-18)
(35.0628 9.74969 -1.09636e-17)
(35.4304 8.57881 1.42928e-17)
(35.6066 7.45621 -1.05053e-17)
(35.6368 6.40112 1.37758e-17)
(35.5552 5.41635 -3.64117e-18)
(35.3844 4.49841 -3.43512e-18)
(35.1393 3.64184 0)
(34.8294 2.84118 0)
(34.4597 2.09281 0)
(34.0315 1.39683 5.06558e-18)
(33.5674 0.778789 -5.47659e-18)
(33.0912 0.254606 6.31409e-19)
(32.6093 -0.189893 0)
(32.1302 -0.566846 0)
(31.6577 -0.887564 -9.34817e-19)
(31.1916 -1.16015 1.94518e-18)
(30.7311 -1.39001 -1.71781e-18)
(30.2756 -1.5812 1.54061e-18)
(29.8248 -1.73664 -1.39056e-18)
(29.3781 -1.85814 5.85318e-19)
(28.9352 -1.94649 -1.68165e-18)
(28.4962 -2.00186 -9.51558e-19)
(28.0612 -2.02405 1.18526e-20)
(27.6316 -2.01272 -6.70694e-19)
(27.2124 -1.96686 5.98555e-19)
(26.8075 -1.88769 -9.32151e-19)
(26.4248 -1.77039 -4.89886e-19)
(26.0641 -1.62622 1.2061e-20)
(25.7488 -1.42693 -1.19158e-20)
(25.4719 -1.2402 -1.63215e-19)
(22.871 10.8729 0)
(23.7405 11.3643 5.1003e-19)
(24.6135 11.836 3.55624e-19)
(25.5436 12.2614 3.0619e-18)
(26.5664 12.5972 -5.74628e-18)
(27.6834 12.7924 4.34056e-18)
(28.8676 12.8008 2.86891e-18)
(30.0705 12.591 -4.36013e-18)
(31.2315 12.1526 1.30502e-17)
(32.2868 11.501 9.90045e-18)
(33.1812 10.6767 5.65559e-18)
(33.8835 9.73391 0)
(34.388 8.73045 0)
(34.7091 7.71711 1.08559e-17)
(34.8735 6.72739 -1.36882e-17)
(34.9087 5.77905 -2.77969e-18)
(34.8373 4.87977 7.77404e-18)
(34.6764 4.03173 -1.78088e-17)
(34.4385 3.23441 2.62814e-18)
(34.1319 2.48665 3.43226e-18)
(33.761 1.78936 -3.50823e-18)
(33.3483 1.16773 4.09224e-18)
(32.917 0.636695 -4.13417e-18)
(32.4736 0.182685 4.61628e-19)
(32.0268 -0.204306 8.63837e-19)
(31.5818 -0.534037 -3.95003e-18)
(31.1405 -0.81431 2.61662e-19)
(30.7032 -1.05067 2.06791e-19)
(30.2702 -1.24722 5.30766e-20)
(29.8417 -1.40702 1.1469e-18)
(29.4181 -1.53221 1.01567e-18)
(28.9994 -1.62404 9.0386e-19)
(28.5863 -1.68312 7.85044e-19)
(28.1787 -1.70973 -1.65536e-18)
(27.7777 -1.7039 8.6248e-19)
(27.3866 -1.66538 4.43436e-19)
(27.0082 -1.59532 1.04573e-18)
(26.6439 -1.4921 0)
(26.2953 -1.36061 3.94013e-19)
(25.9729 -1.19204 -1.88089e-20)
(25.6806 -1.0096 3.05336e-21)
(23.4308 9.93768 0)
(24.1596 10.3119 -1.34078e-20)
(24.8778 10.6692 0)
(25.6236 10.9965 0)
(26.4268 11.2702 -1.39894e-18)
(27.2982 11.4596 0)
(28.2321 11.5318 -6.2236e-18)
(29.2061 11.4566 0)
(30.1842 11.2133 -1.95512e-17)
(31.1209 10.7961 2.6295e-17)
(31.9692 10.2191 -5.56747e-18)
(32.6935 9.50934 -1.86725e-17)
(33.2727 8.70375 -8.14604e-18)
(33.6994 7.84307 -1.64458e-19)
(33.9803 6.96249 1.2044e-17)
(34.1296 6.08786 -8.12592e-18)
(34.1635 5.23617 1.21744e-17)
(34.0972 4.41774 1.57534e-19)
(33.9432 3.63842 -5.53718e-18)
(33.7115 2.90139 8.50777e-18)
(33.4087 2.20992 -5.00758e-20)
(33.0565 1.58975 -4.08518e-19)
(32.6776 1.05589 -6.14399e-18)
(32.2798 0.59572 5.81418e-18)
(31.8722 0.200992 1.64248e-18)
(31.4609 -0.13645 -2.71695e-18)
(31.0495 -0.423657 0)
(30.6398 -0.666119 3.81124e-18)
(30.2329 -0.86798 -4.08224e-18)
(29.8298 -1.03245 1.9123e-19)
(29.4313 -1.16191 9.22493e-19)
(29.0383 -1.25809 -7.39144e-19)
(28.6518 -1.32208 0)
(28.2721 -1.35473 5.59747e-19)
(27.9006 -1.35649 4.70906e-20)
(27.5405 -1.32777 2.58168e-19)
(27.1946 -1.26966 -6.00091e-19)
(26.8637 -1.18222 1.40982e-19)
(26.5491 -1.06788 -3.49734e-19)
(26.2588 -0.92472 3.64419e-20)
(25.9879 -0.766809 0)
(23.8994 9.10915 3.73537e-20)
(24.5156 9.39267 -7.46406e-20)
(25.1142 9.66064 0)
(25.7224 9.90713 0)
(26.3634 10.1192 1.5358e-18)
(27.0491 10.2793 2.0419e-18)
(27.7826 10.3663 1.20131e-17)
(28.5562 10.3578 -3.1029e-18)
(29.3523 10.2335 0)
(30.1431 9.9801 -2.60888e-18)
(30.8951 9.59595 1.0529e-18)
(31.5782 9.08986 3.10102e-18)
(32.1679 8.47996 0)
(32.6463 7.79172 1.50149e-17)
(33.006 7.05268 -1.24962e-17)
(33.2478 6.28804 1.23094e-17)
(33.3782 5.51836 -1.38896e-17)
(33.4063 4.7592 -1.28782e-18)
(33.3413 4.02185 0)
(33.1924 3.31417 0)
(32.9666 2.6427 -7.13453e-19)
(32.6835 2.03464 3.39616e-19)
(32.365 1.50611 3.03423e-19)
(32.0205 1.04635 0)
(31.6597 0.648875 -4.57688e-18)
(31.2894 0.307187 -4.31493e-18)
(30.9147 0.0152249 3.71402e-18)
(30.5387 -0.232068 -4.18245e-18)
(30.1635 -0.438729 0)
(29.7907 -0.607979 6.85537e-19)
(29.4218 -0.742387 -2.71073e-18)
(29.0582 -0.843972 3.64418e-18)
(28.7012 -0.914276 -6.08153e-19)
(28.3516 -0.954677 0)
(28.0108 -0.966127 3.87417e-19)
(27.6817 -0.949557 -2.32017e-20)
(27.367 -0.906375 2.743e-19)
(27.0673 -0.837597 0)
(26.7844 -0.745344 7.83598e-20)
(26.5241 -0.629463 -1.06011e-19)
(26.2836 -0.502042 2.79437e-20)
(24.2889 8.3743 -7.13832e-20)
(24.8128 8.58752 3.94514e-20)
(25.3163 8.78614 0)
(25.8188 8.96823 -7.56273e-19)
(26.338 9.12669 -1.28952e-18)
(26.8843 9.25158 -1.7135e-18)
(27.4631 9.33017 -2.15983e-18)
(28.0738 9.3474 -2.62302e-18)
(28.7093 9.28775 1.1734e-17)
(29.3548 9.13787 1.6135e-18)
(29.9894 8.89007 -1.257e-17)
(30.5919 8.54289 1.97332e-17)
(31.1418 8.10175 1.1505e-18)
(31.6197 7.57904 -1.93579e-17)
(32.0119 6.99148 -2.44645e-18)
(32.3105 6.3579 0)
(32.5132 5.69662 -2.1453e-18)
(32.6217 5.02404 4.57436e-18)
(32.6401 4.35395 -1.10046e-17)
(32.5741 3.69744 2.46177e-19)
(32.429 3.06402 8.61729e-18)
(32.2207 2.48229 6.96204e-18)
(31.9689 1.97014 -6.65424e-19)
(31.6845 1.5196 -7.37999e-18)
(31.3774 1.12628 0)
(31.0557 0.78546 0)
(30.7249 0.492302 0)
(30.3892 0.242549 0)
(30.0517 0.0325035 0)
(29.7149 -0.140914 6.10714e-19)
(29.3808 -0.280327 2.69751e-19)
(29.0512 -0.387916 -1.92493e-18)
(28.7278 -0.465545 9.33759e-19)
(28.4117 -0.515005 -3.44612e-19)
(28.1042 -0.537691 1.03964e-18)
(27.8079 -0.534931 -1.48608e-18)
(27.5253 -0.508406 3.17511e-19)
(27.2567 -0.459727 2.05512e-19)
(27.0036 -0.391045 -3.00935e-19)
(26.7702 -0.302882 -7.8628e-20)
(26.5551 -0.205648 1.23207e-19)
(24.6097 7.72284 0)
(25.0569 7.88138 -4.72366e-19)
(25.4831 8.02632 1.14287e-18)
(25.9023 8.15802 6.35617e-19)
(26.328 8.27249 -1.53758e-18)
(26.7686 8.36409 1.98431e-18)
(27.2295 8.42528 -8.26994e-18)
(27.7128 8.44652 2.88989e-18)
(28.2163 8.41705 -7.99422e-18)
(28.7331 8.32632 7.987e-18)
(29.2515 8.16603 2.71335e-18)
(29.7583 7.93107 -2.28097e-17)
(30.2392 7.62012 1.02147e-17)
(30.6783 7.23689 2.08241e-18)
(31.0616 6.78938 1.25578e-17)
(31.378 6.28867 0)
(31.6201 5.74774 1.82321e-18)
(31.784 5.18004 -3.38849e-18)
(31.8687 4.59851 1.79443e-18)
(31.8755 4.01489 0)
(31.8065 3.43995 0)
(31.6726 2.90231 -5.25066e-18)
(31.4898 2.42124 6.7928e-18)
(31.2694 1.99215 1.54617e-19)
(31.0214 1.61299 0)
(30.7538 1.28093 -4.93282e-18)
(30.4728 0.992667 9.57146e-18)
(30.1835 0.744983 -4.62708e-18)
(29.8895 0.534795 2.11591e-18)
(29.594 0.359334 -1.99214e-18)
(29.2995 0.216127 -2.23065e-19)
(29.0082 0.102963 1.92606e-18)
(28.7221 0.017864 -3.33704e-19)
(28.4423 -0.0412293 -1.69534e-18)
(28.1705 -0.0759602 -5.44426e-19)
(27.9088 -0.0878987 1.02197e-18)
(27.6593 -0.0788258 -4.77509e-19)
(27.4222 -0.0506988 3.62719e-19)
(27.1985 -0.0055844 -2.4626e-20)
(26.9914 0.0557123 2.11777e-19)
(26.7997 0.124461 -1.65443e-19)
(24.8711 7.14618 -3.12612e-20)
(25.2535 7.2621 3.0869e-20)
(25.6157 7.36571 -1.07585e-18)
(25.968 7.45856 0)
(26.3203 7.53823 1.28919e-18)
(26.6795 7.60153 -1.66265e-18)
(27.0503 7.644 3.7663e-18)
(27.4353 7.65969 2.45266e-18)
(27.8344 7.64153 0)
(28.2449 7.58202 0)
(28.6605 7.47438 1.53744e-17)
(29.0738 7.31321 -1.42271e-17)
(29.4759 7.09493 0)
(29.8556 6.81882 -4.36781e-18)
(30.2016 6.48724 -1.86118e-17)
(30.5036 6.10546 1.62448e-17)
(30.7528 5.68092 -9.74599e-18)
(30.9427 5.22266 1.09683e-17)
(31.069 4.74059 0)
(31.1295 4.24473 0)
(31.1232 3.74509 0)
(31.0554 3.26815 0)
(30.9377 2.83326 8.18353e-18)
(30.7803 2.43895 -9.06944e-18)
(30.5924 2.08542 0)
(30.3816 1.77173 0)
(30.1541 1.49616 3.56055e-18)
(29.9152 1.25663 -3.57082e-18)
(29.6691 1.05093 -3.21918e-18)
(29.4191 0.876825 3.06985e-18)
(29.1682 0.73222 8.43284e-20)
(28.9187 0.61506 0)
(28.6728 0.523452 -1.47849e-19)
(28.4319 0.455282 1.00973e-18)
(28.1975 0.408858 -9.79219e-20)
(27.9717 0.382547 -8.00322e-19)
(27.756 0.374626 0)
(27.5506 0.382992 0)
(27.3562 0.405804 -2.95095e-19)
(27.1751 0.44218 1.5458e-19)
(27.0065 0.4852 0)
(25.0812 6.63585 3.23704e-20)
(25.4083 6.71869 0)
(25.7166 6.79082 4.2974e-19)
(26.0136 6.85424 -1.19401e-18)
(26.3071 6.90727 -3.8664e-18)
(26.6023 6.94808 1.8465e-18)
(26.9032 6.97404 -2.64583e-18)
(27.2122 6.9814 0)
(27.5301 6.96556 0)
(27.8559 6.92144 1.03834e-17)
(28.1864 6.84409 -1.18619e-17)
(28.5177 6.72911 8.88891e-19)
(28.8445 6.57284 8.81575e-18)
(29.1597 6.37311 -9.64823e-18)
(29.4553 6.12954 -1.4368e-18)
(29.7233 5.84378 1.83979e-18)
(29.9559 5.51947 -1.22739e-17)
(30.1464 5.16177 2.76933e-17)
(30.2894 4.77712 -1.38669e-17)
(30.3809 4.37283 -1.23436e-17)
(30.4179 3.95676 1.38586e-17)
(30.4012 3.55149 0)
(30.3381 3.1747 -7.73548e-19)
(30.2368 2.82713 0)
(30.1049 2.51056 -6.00155e-18)
(29.949 2.22559 1.20616e-17)
(29.7749 1.97184 1.11327e-17)
(29.5875 1.74828 -5.41548e-18)
(29.3907 1.55362 0)
(29.1882 1.38632 -2.20333e-18)
(28.9828 1.24474 2.16864e-18)
(28.7771 1.1272 0)
(28.5731 1.03203 0)
(28.3724 0.957301 -2.60529e-20)
(28.1764 0.901426 0)
(27.9868 0.862915 -1.33073e-19)
(27.8051 0.840222 0)
(27.6313 0.831318 0)
(27.466 0.834668 1.27565e-19)
(27.3108 0.849427 -4.9163e-22)
(27.1655 0.87051 -1.66805e-19)
(25.2416 6.20543 -1.48546e-19)
(25.5232 6.26398 1.23998e-18)
(25.7875 6.31343 -9.68721e-19)
(26.0403 6.35574 1.06186e-18)
(26.2875 6.38958 -1.25496e-18)
(26.5334 6.41393 9.13572e-18)
(26.7813 6.42723 2.44017e-18)
(27.0332 6.42702 -1.88233e-17)
(27.2902 6.41023 1.12551e-18)
(27.5519 6.37342 8.43746e-18)
(27.8168 6.31307 1.89554e-18)
(28.0826 6.22592 -3.84618e-18)
(28.3463 6.10896 3.85595e-19)
(28.6035 5.95993 0)
(28.8488 5.77757 -8.74245e-19)
(29.0764 5.56187 -1.16057e-18)
(29.2805 5.31419 -1.21588e-17)
(29.4553 5.03724 2.28388e-17)
(29.5957 4.73488 -1.08554e-17)
(29.6974 4.41192 -1.51288e-18)
(29.7569 4.07399 -1.09435e-17)
(29.7724 3.7391 1.02327e-17)
(29.7476 3.42237 7.17009e-19)
(29.6889 3.12554 0)
(29.6019 2.85118 0)
(29.4921 2.60073 -3.19812e-19)
(29.3642 2.37468 2.71032e-19)
(29.2225 2.17285 0)
(29.0706 1.99465 0)
(28.9119 1.83915 -1.16396e-19)
(28.7489 1.70518 0)
(28.5841 1.59148 -1.65828e-18)
(28.4195 1.49671 1.7026e-18)
(28.2564 1.41925 2.38254e-20)
(28.0963 1.35774 2.10037e-20)
(27.9407 1.31094 6.52615e-19)
(27.7907 1.27757 -6.12623e-19)
(27.6465 1.25581 0)
(27.5086 1.24447 1.54221e-20)
(27.3781 1.24275 0)
(27.2552 1.24722 4.99577e-20)
(25.3592 5.8587 -8.71348e-21)
(25.6048 5.89999 -1.32582e-19)
(25.8346 5.93346 -1.34712e-18)
(26.053 5.96088 3.98836e-18)
(26.2647 5.98111 -7.43258e-19)
(26.4734 5.99364 4.57236e-18)
(26.6818 5.99753 -5.87114e-18)
(26.8917 5.9911 7.98202e-18)
(27.1039 5.97222 -1.27581e-18)
(27.3185 5.93849 -7.82218e-18)
(27.5347 5.88742 -1.13063e-17)
(27.7511 5.81666 1.29776e-17)
(27.966 5.72391 1.77886e-18)
(28.1764 5.60727 1.62401e-18)
(28.3788 5.46544 1.56854e-17)
(28.5692 5.29785 1.90728e-18)
(28.7432 5.10486 -1.61602e-17)
(28.8964 4.88774 -1.17849e-18)
(29.0246 4.64871 -8.8783e-18)
(29.124 4.39089 1.77591e-17)
(29.1911 4.11806 -8.85326e-18)
(29.2231 3.84424 5.98149e-19)
(29.2217 3.58174 0)
(29.1915 3.33254 0)
(29.1367 3.09932 4.83653e-19)
(29.0613 2.88382 3.90826e-18)
(28.9692 2.68696 -3.64068e-18)
(28.864 2.50907 -4.01612e-18)
(28.7487 2.34998 6.98119e-18)
(28.6262 2.20922 -3.29023e-18)
(28.4988 2.08604 -1.87598e-19)
(28.3686 1.97954 2.87835e-18)
(28.2374 1.88872 -4.26702e-18)
(28.1066 1.81227 2.69334e-18)
(27.9772 1.74909 -9.7662e-20)
(27.8507 1.69822 -2.2852e-18)
(27.7281 1.65865 1.61808e-18)
(27.6094 1.62882 -5.42787e-19)
(27.4953 1.60782 2.07737e-19)
(27.3865 1.59492 -2.07837e-19)
(27.2835 1.58803 0)
(25.4473 5.57496 7.73732e-21)
(25.6638 5.60366 -6.76738e-19)
(25.8657 5.62562 6.81994e-19)
(26.0566 5.64236 3.59066e-18)
(26.2405 5.65286 -3.06326e-18)
(26.4202 5.65694 3.79735e-18)
(26.5983 5.65405 -4.74315e-18)
(26.776 5.643 0)
(26.9544 5.62227 1.61483e-18)
(27.1336 5.59013 6.31892e-18)
(27.313 5.54481 -1.71987e-17)
(27.4919 5.48458 1.12713e-17)
(27.6691 5.40774 -9.47339e-18)
(27.8427 5.31283 -2.26211e-18)
(28.0102 5.19872 9.13361e-19)
(28.1688 5.06477 2.64829e-17)
(28.3154 4.91093 -1.12952e-17)
(28.4467 4.73779 0)
(28.5594 4.54662 -1.6356e-18)
(28.6504 4.33938 8.34047e-19)
(28.7167 4.11864 0)
(28.7553 3.89519 0)
(28.7669 3.67883 0)
(28.7547 3.47138 -8.1514e-19)
(28.7217 3.27527 -4.56083e-19)
(28.671 3.09222 -3.87798e-19)
(28.6056 2.9233 3.75643e-19)
(28.5284 2.76903 -2.59809e-18)
(28.4417 2.62952 2.99502e-18)
(28.3481 2.50458 3.3372e-19)
(28.2495 2.39378 -1.42765e-19)
(28.1476 2.29648 -2.32591e-18)
(28.044 2.21196 4.81433e-18)
(27.9399 2.13921 -2.41e-18)
(27.8362 2.07739 0)
(27.7342 2.02574 -9.8296e-19)
(27.6347 1.98352 1.44122e-18)
(27.5378 1.9494 -4.31411e-19)
(27.444 1.92273 2.03492e-19)
(27.354 1.90281 -2.1486e-19)
(27.2681 1.88856 0)
(25.5144 5.33848 1.25501e-19)
(25.7068 5.35785 -6.7408e-19)
(25.8856 5.37143 5.73192e-19)
(26.054 5.38041 -2.16209e-18)
(26.2151 5.38391 0)
(26.3717 5.38194 1.85432e-18)
(26.5256 5.37421 0)
(26.6782 5.35985 -2.87111e-18)
(26.8302 5.33774 9.61692e-18)
(26.9819 5.30661 -2.78111e-18)
(27.1328 5.26519 5.61005e-18)
(27.2826 5.2122 -9.35355e-18)
(27.4304 5.14639 -1.11789e-18)
(27.5748 5.06668 -9.17665e-18)
(27.7142 4.97217 1.03137e-17)
(27.8466 4.86232 -1.87314e-19)
(27.9696 4.73695 -1.42657e-18)
(28.0809 4.59635 -1.27563e-18)
(28.1779 4.44128 1.5253e-18)
(28.2583 4.27301 -7.77825e-19)
(28.3196 4.09329 0)
(28.3592 3.91041 0)
(28.3771 3.73214 0)
(28.3756 3.55998 1.43696e-18)
(28.357 3.39599 -6.18651e-18)
(28.3235 3.24169 5.86495e-18)
(28.2774 3.09811 4.85557e-18)
(28.221 2.96583 -5.18548e-18)
(28.1563 2.84508 0)
(28.0852 2.73582 2.00643e-18)
(28.0092 2.63783 -4.23071e-18)
(27.93 2.55067 1.80978e-18)
(27.8487 2.47382 -2.01861e-18)
(27.7663 2.40651 2.00963e-18)
(27.6838 2.34811 -2.24421e-19)
(27.602 2.29805 8.64031e-19)
(27.5217 2.25578 -9.61798e-19)
(27.4431 2.22019 0)
(27.3665 2.19084 0)
(27.2926 2.16708 8.674e-20)
(27.2216 2.14856 -8.22893e-20)
(25.5664 5.13842 -1.6106e-20)
(25.7383 5.15079 6.36749e-19)
(25.8977 5.15818 1.60358e-18)
(26.0472 5.16149 -2.6212e-18)
(26.1895 5.15989 2.07178e-18)
(26.327 5.15357 0)
(26.4613 5.14242 0)
(26.5936 5.12577 -2.2755e-19)
(26.7245 5.10279 7.40012e-18)
(26.8543 5.07254 -1.87705e-17)
(26.9827 5.03409 5.56852e-18)
(27.1095 4.98649 4.95255e-18)
(27.2339 4.92884 4.65621e-19)
(27.3552 4.86032 -1.60612e-17)
(27.472 4.78029 -1.45485e-18)
(27.5829 4.68832 -1.48083e-18)
(27.6861 4.58423 1.68881e-17)
(27.78 4.46819 1.48854e-18)
(27.8627 4.34068 -9.95878e-18)
(27.9323 4.20258 1.08233e-18)
(27.987 4.0551 -1.04831e-17)
(28.0245 3.90467 9.37037e-18)
(28.0446 3.7574 5.78315e-18)
(28.0491 3.61447 -5.28944e-18)
(28.0396 3.47757 6.15114e-19)
(28.0177 3.34798 4.43716e-18)
(27.9854 3.22659 -4.41678e-18)
(27.9443 3.11395 0)
(27.8961 3.01033 4.65521e-18)
(27.8421 2.91574 1.95071e-18)
(27.7837 2.83009 -1.94247e-18)
(27.7222 2.75308 2.42033e-19)
(27.6586 2.68435 -2.1003e-19)
(27.5936 2.62332 1.65038e-18)
(27.5281 2.56949 -1.62601e-18)
(27.4628 2.52247 9.37058e-19)
(27.3982 2.48183 -6.5378e-19)
(27.3346 2.44669 1.68653e-19)
(27.2724 2.41673 1.64184e-19)
(27.2119 2.39137 -3.2791e-19)
(27.1536 2.37073 3.69855e-21)
(25.6071 4.96714 1.69557e-19)
(25.7614 4.97424 -3.17744e-19)
(25.9042 4.97704 -5.34024e-19)
(26.0377 4.97615 0)
(26.1641 4.97085 -1.83069e-18)
(26.2856 4.96144 -5.11525e-18)
(26.4036 4.9479 8.5624e-18)
(26.5192 4.92974 -1.32243e-17)
(26.6329 4.90633 1.68305e-17)
(26.745 4.87697 -5.72329e-18)
(26.8552 4.84097 -8.36562e-18)
(26.9634 4.79762 5.98314e-19)
(27.0692 4.74628 9.25134e-18)
(27.1718 4.68635 7.589e-18)
(27.2703 4.61736 -6.04728e-18)
(27.3636 4.539 1.54402e-18)
(27.4504 4.45117 0)
(27.5296 4.35397 -7.21271e-18)
(27.5997 4.24774 7.32706e-18)
(27.6593 4.13312 -1.0061e-18)
(27.707 4.01098 8.61917e-18)
(27.741 3.88635 -8.48672e-18)
(27.761 3.76409 -1.02546e-18)
(27.7685 3.64509 0)
(27.7646 3.53068 0)
(27.7506 3.4219 3.21031e-18)
(27.7279 3.31947 -3.20426e-18)
(27.6979 3.22388 3.46625e-18)
(27.6617 3.13538 2.99775e-18)
(27.6206 3.05399 -3.25778e-18)
(27.5757 2.9797 1.67031e-18)
(27.5279 2.91233 3.08436e-18)
(27.4781 2.8516 -1.31504e-18)
(27.4269 2.79706 0)
(27.3749 2.74835 1.56405e-20)
(27.3227 2.70516 -1.72364e-19)
(27.2709 2.66719 1.51994e-19)
(27.2195 2.63373 -1.57487e-19)
(27.169 2.60455 1.50402e-19)
(27.1197 2.57914 6.2662e-20)
(27.0717 2.55791 1.97566e-19)
(25.6392 4.81904 0)
(25.7783 4.82216 2.34032e-19)
(25.9067 4.82153 0)
(26.0263 4.81756 0)
(26.1392 4.80957 5.16491e-18)
(26.2471 4.79798 -3.58802e-18)
(26.3514 4.78282 2.45076e-18)
(26.4531 4.76373 -3.98892e-18)
(26.5525 4.74024 2.91417e-18)
(26.65 4.71182 0)
(26.7453 4.67796 0)
(26.8384 4.63814 0)
(26.9289 4.59189 1.04144e-17)
(27.0162 4.53878 -1.91276e-17)
(27.0998 4.4785 9.88964e-18)
(27.1787 4.41083 -1.43205e-18)
(27.252 4.33573 0)
(27.3189 4.25328 0)
(27.3782 4.16376 7.98188e-19)
(27.4289 4.06764 0)
(27.47 3.96558 -5.45236e-18)
(27.5 3.86159 6.27312e-18)
(27.5188 3.75951 -7.31576e-19)
(27.5275 3.66002 -7.28365e-19)
(27.5269 3.56413 6.08196e-18)
(27.518 3.47267 -4.94401e-18)
(27.502 3.38622 -4.54787e-20)
(27.4799 3.30519 3.42246e-19)
(27.4527 3.22977 3.34145e-19)
(27.4213 3.16007 3.25429e-19)
(27.3865 3.09596 3.16279e-19)
(27.3493 3.03741 -1.27117e-18)
(27.3101 2.98421 1.26555e-18)
(27.2696 2.936 0)
(27.2282 2.8925 -1.26958e-18)
(27.1865 2.85349 1.40771e-18)
(27.1448 2.81874 3.89913e-19)
(27.1033 2.78768 -5.29075e-19)
(27.0623 2.76016 -1.20545e-19)
(27.0221 2.73573 -1.25072e-19)
(26.9827 2.71498 -1.20032e-19)
(25.6649 4.68992 0)
(25.7905 4.69002 -2.11731e-19)
(25.9063 4.68686 6.88695e-19)
(26.0139 4.68061 -2.30813e-18)
(26.115 4.67071 2.37464e-18)
(26.2112 4.65761 0)
(26.3039 4.6414 1.83912e-18)
(26.3938 4.62182 2.26734e-19)
(26.4812 4.59852 -2.68046e-18)
(26.5664 4.57109 0)
(26.6493 4.53917 -5.00593e-18)
(26.7299 4.50238 4.96143e-18)
(26.8078 4.46036 -1.74635e-18)
(26.8826 4.41285 0)
(26.9539 4.35961 0)
(27.0209 4.30053 0)
(27.0831 4.23559 0)
(27.1396 4.16489 -1.11606e-18)
(27.1898 4.08867 0)
(27.2329 4.00731 0)
(27.268 3.92131 -1.85455e-18)
(27.2941 3.83388 6.77986e-19)
(27.3111 3.74811 -5.17898e-19)
(27.3198 3.66448 1.27295e-18)
(27.3211 3.58378 0)
(27.3155 3.50665 4.25517e-18)
(27.3042 3.43356 -5.79738e-18)
(27.2877 3.36481 -2.68226e-18)
(27.2671 3.30059 1.49081e-18)