/*--------------------------------*- C++ -*----------------------------------*\
| =========                 |                                                 |
| \\      /  F ield         | OpenFOAM: The Open Source CFD Toolbox           |
|  \\    /   O peration     | Version:  2312                                  |
|   \\  /    A nd           | Website:  www.openfoam.com                      |
|    \\/     M anipulation  |                                                 |
\*---------------------------------------------------------------------------*/
FoamFile
{
    version     2.0;
    format      ascii;
    arch        "LSB;label=32;scalar=64";
    class       volScalarField;
    location    "0";
    object      div(phi);
}
// * * * * * * * * * * * * * * * * * * * * * * * * * * * * * * * * * * * * * //

dimensions      [0 0 -1 0 0 0 0];

internalField   nonuniform List<scalar> 
11040
(
-6348.75
-5218.62
-4134.91
-3273.36
-2602.53
-2075.35
-1650.39
-1297.26
-995.566
-731.618
-494.61
-278.327
-76.8137
113.648
295.172
469.263
637.163
799.176
956.214
1108
1255.83
1382.12
1473.75
1548.69
1615.81
1675.36
1728.77
1776.74
1820.32
1860.1
1896.85
1931.13
1963.29
1994.05
2024.08
2053.22
2081.5
2110.05
2138.84
2168.04
2197.12
6.12311e-14
-9.94971e-13
0
0
0
0
-2.08096e-13
-1.94664e-13
-1.82063e-13
1.70992e-13
0
1.50918e-13
-1.4138e-13
1.32539e-13
3.72895e-13
-1.16576e-13
0
0
1.91788e-13
-3.58697e-13
0
0
3.41102e-13
-1.70323e-13
-1.70127e-13
1.69897e-13
1.69646e-13
1.69379e-13
1.69104e-13
3.37668e-13
0
0
0
3.34602e-13
0
-3.34244e-13
0
6.62802e-13
0
0
-3.34771e-13
-6.19569e-13
1.55465e-12
3.99905e-13
-3.89926e-13
0
0
3.33079e-13
0
4.40402e-13
-5.53063e-13
1.30687e-13
0
1.15037e-13
-1.08005e-13
1.01419e-13
9.5222e-14
-3.57465e-13
8.38083e-14
0
2.93882e-13
-1.37284e-13
-1.39854e-13
0
-1.39725e-13
0
-2.78877e-13
-1.39261e-13
0
-1.38867e-13
0
-2.76965e-13
0
0
0
0
5.4948e-13
0
-2.72461e-13
2.73748e-13
-2.73428e-13
0
-4.04763e-13
0
-6.22069e-13
0
-2.93992e-13
2.80126e-13
-5.30403e-13
-1.25123e-13
-1.17894e-13
3.34221e-13
-6.33541e-13
1.9857e-13
9.33714e-14
0
0
1.55288e-13
-1.09425e-13
0
1.28421e-13
-2.40502e-13
-2.24838e-13
2.29111e-13
-1.14611e-13
0
2.28896e-13
-1.14349e-13
-2.28461e-13
1.14098e-13
1.13958e-13
-1.13817e-13
0
-2.27159e-13
0
0
-2.25538e-13
-2.25719e-13
0
-2.23904e-13
0
0
0
-1.12664e-13
0
0
0
4.59674e-13
-2.20433e-13
0
0
-9.42434e-14
-8.93968e-14
0
-2.40465e-13
0
-1.42445e-13
2.01304e-13
-3.15897e-13
5.94386e-14
1.11719e-13
-1.04859e-13
9.82734e-14
1.83886e-13
-1.87442e-13
9.3802e-14
9.37632e-14
0
-9.36829e-14
1.87227e-13
0
0
1.86694e-13
0
3.72768e-13
-1.86332e-13
1.85383e-13
-1.85159e-13
5.56005e-13
-3.72115e-13
-1.83903e-13
1.84808e-13
0
-3.71848e-13
-1.70924e-13
-3.52943e-13
0
3.64872e-13
0
-1.72226e-13
0
0
2.9976e-13
-1.42791e-13
1.36265e-13
6.44646e-14
1.82846e-13
-2.30345e-13
5.43681e-14
-1.02567e-13
4.83225e-14
0
2.13663e-13
0
1.50167e-13
-7.65656e-14
-1.53334e-13
1.53338e-13
-7.66766e-14
1.53327e-13
0
-1.53183e-13
2.29621e-13
-7.6486e-14
-7.64355e-14
1.52798e-13
1.5279e-13
1.52049e-13
0
-1.52069e-13
3.05371e-13
-3.019e-13
1.51714e-13
0
1.52669e-13
4.49592e-13
5.32922e-13
2.78171e-13
-2.7853e-13
-1.37165e-13
1.33516e-13
0
0
0
-5.67108e-14
0
-5.16175e-14
4.89641e-14
0
-4.391e-14
2.07534e-13
0
7.38642e-14
0
-1.30581e-13
0
6.24437e-14
6.25607e-14
0
2.50526e-13
-2.50595e-13
1.25302e-13
1.25283e-13
-1.87868e-13
1.252e-13
-1.25157e-13
0
0
-2.49184e-13
2.48996e-13
0
0
1.23806e-13
0
-1.24376e-13
1.25275e-13
0
-1.99291e-13
0
4.21366e-13
-2.0919e-13
0
-1.9975e-13
0
9.30192e-14
4.47718e-14
8.62125e-14
0
-7.83126e-14
-1.48896e-13
-7.06618e-14
0
3.16735e-14
8.97324e-14
-1.12773e-13
-2.65211e-14
-9.95763e-14
1.52469e-13
0
-1.02022e-13
1.0214e-13
0
-2.04559e-13
3.06934e-13
-1.02326e-13
0
-1.02336e-13
2.04709e-13
0
-2.0396e-13
0
-1.02099e-13
0
0
1.01998e-13
-2.03915e-13
1.0271e-13
-3.52676e-14
-2.95317e-13
0
-1.57877e-13
1.58058e-13
0
3.06895e-13
-7.47705e-14
0
3.51059e-14
6.79544e-14
-6.51454e-14
4.36091e-13
-3.2696e-13
5.66095e-14
2.68991e-14
0
-9.65796e-14
-9.12107e-14
-4.29737e-14
8.07972e-14
0
0
-8.29609e-14
1.66229e-13
0
-8.33309e-14
8.3404e-14
0
-8.35054e-14
-1.67096e-13
1.67198e-13
-4.18396e-14
0
0
-1.67028e-13
8.39109e-14
1.66074e-13
-1.67011e-13
-8.34941e-14
0
-1.28881e-13
2.16793e-13
-1.14485e-13
-1.17196e-13
1.18307e-13
-2.36183e-13
-1.1683e-13
0
5.60534e-14
1.09282e-13
-7.97836e-14
0
-4.92657e-14
-9.44221e-14
-1.80504e-13
1.93618e-13
2.04626e-14
-3.8832e-14
1.83782e-14
-6.94094e-14
6.53664e-14
1.00231e-13
3.35512e-14
0
-6.74675e-14
0
3.38715e-14
-1.35696e-13
0
-1.36025e-13
6.80846e-14
1.02241e-13
-1.02389e-13
-3.40165e-14
0
-1.36426e-13
1.37119e-13
0
0
-1.3658e-13
-1.37646e-13
5.60258e-14
-1.57732e-13
1.67204e-13
0
-1.75443e-13
8.83189e-14
8.81305e-14
0
8.59346e-14
8.43562e-14
-1.65253e-13
-8.01202e-14
3.87008e-14
-5.58949e-14
1.25188e-13
5.13473e-14
-9.80046e-14
-7.77216e-14
2.21279e-13
1.3961e-14
2.63502e-14
-1.07843e-13
5.42068e-14
5.44128e-14
-1.36524e-13
-5.47798e-14
5.49277e-14
1.10112e-13
-1.10337e-13
8.29039e-14
8.30456e-14
0
-8.3356e-14
0
-2.77328e-14
3.33716e-13
-2.79619e-13
-1.66189e-13
5.57427e-14
0
0
-2.41555e-13
0
0
1.25641e-13
6.44408e-14
6.54307e-14
6.58548e-14
1.31564e-13
-1.30556e-13
1.29101e-13
-1.90938e-13
7.76423e-14
1.05624e-13
5.84201e-14
-8.45101e-14
8.12204e-14
1.29671e-14
4.95264e-14
-8.25e-14
3.35514e-14
-4.23188e-14
1.51708e-13
8.72568e-14
-1.53462e-13
2.2027e-13
-8.84754e-14
6.66014e-14
-1.33638e-13
1.56366e-13
0
-8.98107e-14
-9.00307e-14
4.51357e-14
2.25222e-14
9.02184e-14
-4.52584e-14
6.82909e-14
-1.3538e-13
2.72561e-13
-9.09437e-14
1.83415e-13
0
0
0
0
-9.38278e-14
-1.92098e-13
0
-9.82036e-14
0
2.44721e-14
-1.4578e-13
2.38741e-13
-2.10099e-13
1.81796e-13
1.32173e-13
-8.50812e-14
1.22767e-13
2.94169e-14
-2.80968e-14
-1.06975e-13
-1.26847e-13
2.77505e-13
-1.22378e-13
5.27825e-14
-1.77003e-14
1.42367e-13
-8.94106e-14
2.15521e-13
-1.80308e-13
7.23839e-14
-2.17887e-13
7.28684e-14
5.48406e-14
0
-1.82975e-14
-2.20436e-13
1.66401e-13
-3.66805e-14
1.47767e-13
1.10993e-13
-1.49291e-13
-5.42142e-14
0
0
-6.50737e-14
1.35448e-13
6.98647e-14
-3.57452e-14
7.26078e-14
0
1.47046e-13
-3.67582e-14
7.27529e-14
-7.16105e-14
-1.75339e-14
-8.54627e-14
-1.65885e-14
3.20635e-14
3.08619e-14
5.91799e-14
-8.47891e-14
8.06856e-14
-2.76191e-14
8.36564e-14
-1.4054e-14
-2.83199e-14
0
1.43447e-14
1.15403e-13
-1.44995e-13
1.6025e-13
-8.77973e-14
-2.93914e-14
8.85612e-14
-2.95136e-14
5.92034e-14
8.92219e-14
-5.99064e-14
8.92164e-14
-1.19868e-13
1.50156e-14
0
1.90745e-14
0
8.76583e-14
-4.62956e-14
0
-5.03838e-14
5.19529e-14
-5.3183e-14
1.08131e-13
5.46941e-14
0
-8.23626e-14
-8.16282e-14
1.47514e-13
-2.6302e-14
-7.70024e-14
1.12194e-13
8.43831e-14
-2.32144e-14
5.56493e-14
-3.18868e-14
-1.09322e-14
-2.21165e-14
-2.23334e-14
-5.63501e-14
-9.09218e-14
1.25984e-13
-5.76712e-14
1.16094e-13
-5.83978e-14
-5.8729e-14
1.18098e-14
2.37487e-14
0
3.57965e-14
1.67981e-13
-1.57216e-13
2.64431e-13
-2.66633e-13
7.29269e-14
0
5.33849e-14
0
-6.16454e-14
-6.54238e-14
-6.89231e-14
3.60431e-14
-3.7431e-14
1.54414e-13
-5.93145e-14
-8.05982e-14
0
2.05218e-14
4.09636e-14
1.11781e-13
-1.70475e-13
1.67339e-13
-1.92273e-13
1.49496e-13
-8.1348e-14
-1.74087e-14
-4.17279e-14
2.14969e-13
1.52533e-13
-1.89622e-13
3.56736e-14
-1.26144e-13
2.8197e-13
-3.11966e-13
-1.47997e-13
1.02515e-13
5.63137e-14
-1.13391e-13
-1.14153e-13
2.57411e-13
-3.83296e-14
3.85822e-14
2.0434e-13
-2.22704e-13
5.86248e-14
1.96144e-14
0
-9.29104e-15
-3.99909e-14
4.31086e-14
-4.59429e-14
4.86501e-14
-2.55925e-14
5.35022e-14
-5.55598e-14
5.73195e-14
-8.82439e-14
0
0
0
-7.62688e-15
1.36351e-13
-1.34663e-13
1.39628e-13
-8.6172e-14
4.1891e-14
0
-1.36608e-13
-1.07448e-13
2.2175e-13
-1.24556e-13
-2.80496e-14
-7.09928e-14
2.87232e-14
7.98302e-14
-5.13041e-14
1.18352e-13
-1.93996e-13
1.80561e-13
-3.79237e-14
4.56774e-14
-1.22588e-13
9.26552e-14
2.33917e-14
1.55399e-14
4.7085e-14
7.88455e-15
-1.27559e-13
-2.15079e-14
6.18429e-14
6.67821e-14
-3.57111e-14
0
4.01591e-14
4.22117e-14
-1.32296e-13
9.1565e-14
2.36432e-14
0
-1.23694e-14
3.75431e-14
-1.44702e-13
2.07493e-13
-8.74598e-14
-3.08582e-14
1.81904e-14
7.70317e-14
1.44021e-13
-1.83897e-13
-6.34089e-14
9.98079e-14
-2.38738e-14
-3.94038e-14
-6.45815e-14
1.71442e-13
-9.78555e-14
-1.91639e-14
-7.75054e-14
2.61051e-14
5.27303e-14
-1.06484e-13
3.34542e-14
6.74328e-14
-6.12392e-14
-3.4395e-14
9.61161e-14
-5.55253e-14
3.4905e-14
0
4.00108e-14
0
0
-2.86395e-14
0
3.24495e-14
-3.42633e-14
8.99306e-14
-5.63144e-14
-1.94923e-14
-4.0279e-14
-2.06248e-14
1.2593e-13
-6.89817e-14
1.06665e-14
5.32819e-15
-5.82112e-14
7.31615e-14
-7.69787e-14
-4.51123e-14
6.33108e-14
-3.53332e-14
-1.03065e-14
-3.15063e-14
4.27637e-14
5.9788e-14
-1.10413e-13
-4.20138e-14
3.40739e-14
-8.62872e-15
1.01898e-13
2.35621e-14
-2.97851e-14
8.99813e-14
-1.21091e-13
1.10112e-13
-1.23832e-14
-4.33236e-14
-8.76839e-14
1.70278e-13
-1.02197e-13
-2.76298e-14
0
-4.31387e-14
4.63696e-14
0
5.28585e-14
-2.80104e-14
5.90558e-14
-6.19063e-14
-6.45756e-14
1.6757e-14
3.44951e-14
2.64625e-14
5.37985e-14
-2.71748e-14
-3.18339e-14
7.26253e-14
-1.35117e-14
1.33302e-14
8.28258e-14
-7.23068e-14
-3.97511e-14
4.06772e-14
-5.53923e-14
3.76752e-14
-5.75848e-14
3.90734e-14
-1.63872e-13
9.58323e-14
-1.02368e-14
1.038e-13
-6.04802e-14
-1.01211e-13
2.79404e-13
-3.39439e-13
1.40114e-13
-3.06231e-14
-9.19784e-14
1.10114e-13
9.10809e-14
-2.76977e-13
3.74149e-15
3.24122e-14
0
-3.78264e-14
2.02871e-14
-2.16676e-14
-2.30345e-14
2.43655e-14
1.28183e-14
2.68459e-14
-1.39883e-14
-2.89229e-14
1.48592e-14
3.79358e-14
-6.93051e-14
-3.88402e-14
1.0515e-13
-8.92774e-14
8.46184e-14
-1.06105e-13
1.188e-13
-8.11074e-14
2.7728e-14
5.271e-14
-8.7057e-14
2.11654e-14
6.90754e-14
-1.23144e-13
1.43217e-13
-9.10005e-14
5.54607e-14
1.40733e-13
-1.95122e-13
-4.32758e-14
9.7348e-15
1.99707e-13
-2.55134e-13
8.27747e-14
-3.81534e-14
5.13422e-15
8.33432e-14
-1.83666e-14
0
-2.87921e-14
-3.10534e-14
3.33722e-14
-7.14459e-14
0
0
0
-2.23958e-14
0
-4.86126e-14
1.8807e-14
6.42862e-15
-1.31048e-14
1.99142e-14
-6.6843e-15
-3.34526e-14
-1.33144e-14
2.63418e-14
4.53403e-14
-3.37524e-14
4.51001e-14
1.42355e-14
-8.38673e-14
1.86554e-14
-4.95672e-14
1.36212e-13
3.96785e-15
-1.13154e-13
-2.87845e-14
1.00339e-13
-9.77063e-14
-1.03185e-13
3.92274e-14
-5.30589e-14
9.43151e-14
6.76667e-14
-1.23642e-13
-6.9408e-15
0
2.01515e-14
4.3729e-14
-2.37318e-14
2.56287e-14
0
2.95843e-14
0
-1.68016e-14
0
0
3.93067e-14
-4.09344e-14
9.53632e-14
-6.54401e-14
0
2.27009e-14
-1.14751e-14
5.18921e-14
-4.03185e-14
0
1.69422e-14
7.66458e-14
-6.07297e-14
1.24863e-14
-7.69201e-14
-9.85827e-15
-8.74845e-14
4.47337e-14
2.10893e-14
-2.367e-13
1.09669e-13
-5.95671e-14
1.55347e-13
-2.68882e-14
4.67992e-14
-3.96173e-15
-2.45772e-13
2.10786e-13
-3.29546e-14
5.83436e-14
-1.35544e-13
-3.33262e-14
-3.61898e-14
3.93054e-14
-2.12467e-14
4.57993e-14
-4.91941e-14
2.63203e-14
-2.80474e-14
1.48767e-14
0
-1.65273e-14
5.17928e-14
-3.58674e-14
-5.09381e-14
2.37755e-14
-4.85406e-14
3.94057e-14
1.49059e-14
-5.97867e-14
5.9596e-14
-1.9686e-14
9.77853e-14
-1.06245e-14
-2.73625e-14
5.06723e-14
-3.75977e-14
7.41802e-14
-1.82416e-14
-1.86678e-14
1.27212e-13
-1.3639e-13
-6.29424e-14
1.08061e-13
-1.37172e-14
2.44093e-14
-4.6114e-14
6.1404e-14
-5.09605e-14
-8.14696e-14
9.75256e-14
0
0
3.00722e-14
3.26794e-14
-1.76815e-14
-1.90783e-14
4.1039e-14
-2.19908e-14
1.17377e-14
6.23829e-14
-6.60413e-14
1.39238e-14
-1.45844e-14
0
4.72282e-14
-5.27106e-14
1.24596e-14
8.45861e-15
-8.56291e-15
-2.15434e-14
-1.7242e-14
-4.28693e-15
-5.83741e-14
6.9664e-14
-7.19124e-14
0
-6.10501e-14
5.22971e-15
-8.32146e-14
9.35731e-14
7.60934e-14
-8.64828e-14
-2.94576e-14
-4.81228e-14
1.16263e-13
-7.16649e-14
-6.34825e-15
-1.61809e-14
-7.18692e-14
-4.65807e-14
7.76106e-14
0
-5.76406e-15
2.50755e-14
0
0
-1.59441e-14
1.71675e-14
-3.68449e-14
-1.96957e-14
-4.19438e-14
2.22442e-14
0
-2.46729e-14
1.28867e-14
1.339e-14
4.84287e-14
-4.97639e-14
3.99489e-14
-2.21343e-14
3.72539e-15
0
-7.09197e-14
-7.83181e-15
4.05822e-14
-4.19762e-15
-2.16793e-14
3.57762e-14
3.22412e-14
7.10586e-14
-9.73181e-14
7.73733e-14
-1.023e-13
3.4032e-14
-5.62219e-14
4.365e-14
3.8957e-14
1.24905e-13
-1.42001e-13
-5.86071e-15
8.96397e-15
-5.76504e-14
9.89748e-14
-1.68605e-14
-2.09715e-14
0
0
1.33606e-14
-2.87982e-14
3.09371e-14
1.65589e-14
-2.64874e-14
5.62824e-14
-6.9492e-14
6.26802e-14
-4.37564e-14
9.11701e-14
-1.18098e-14
-2.13007e-14
-6.54945e-14
3.49617e-14
6.44078e-15
2.59522e-14
-5.52281e-14
-6.82704e-15
-2.83559e-14
2.2041e-14
-2.28114e-14
-1.96445e-14
-8.10855e-15
1.25333e-14
1.28976e-14
-1.32553e-14
-1.13387e-13
1.20911e-13
4.04922e-14
8.26675e-14
3.22906e-14
-1.26883e-14
5.18809e-14
-2.62753e-14
0
4.36392e-14
0
2.01826e-15
-1.75844e-14
0
0
0
1.21032e-14
-2.60282e-14
0
0
3.16895e-14
-1.67963e-14
-8.8549e-15
2.78784e-14
-4.85236e-15
-5.04172e-14
0
-1.3392e-14
-3.5595e-14
3.61826e-14
-5.06339e-14
5.65307e-15
2.37955e-14
-3.0945e-14
3.21339e-14
-9.99649e-15
-6.55523e-14
3.56702e-14
7.36521e-15
-2.65768e-14
2.73637e-14
2.41187e-14
1.0322e-14
-5.50747e-14
2.81592e-14
-6.87084e-14
5.66937e-14
1.16063e-14
2.1198e-14
-1.15557e-13
-7.59853e-14
0
-3.0509e-14
0
1.60873e-14
0
-1.8888e-14
2.03849e-14
-3.29037e-14
2.35294e-14
-2.51518e-14
6.69891e-15
7.11155e-15
-7.51177e-15
-7.89922e-15
8.26799e-15
8.61192e-15
8.92484e-15
-2.76024e-14
-3.30196e-14
2.40501e-15
7.3157e-15
1.72089e-14
-2.85001e-14
5.40124e-15
-8.42942e-15
-2.0435e-14
-3.02844e-14
-1.25482e-14
9.08551e-14
-5.36254e-14
-9.33435e-14
7.1229e-14
1.46578e-14
1.50657e-14
9.26006e-14
-2.9658e-14
4.05216e-15
4.15355e-15
5.48856e-14
-5.83305e-14
-1.32157e-14
0
1.85405e-14
0
-1.35504e-14
0
0
1.71946e-14
-1.85143e-14
1.98746e-14
-1.06326e-14
2.26804e-14
-4.82176e-14
2.55069e-14
-2.68725e-14
1.40931e-14
2.20703e-14
1.91088e-14
-1.58029e-14
1.21882e-14
4.15547e-14
-1.05672e-14
-4.27523e-15
2.93299e-14
-2.12049e-14
7.36823e-15
-1.27834e-14
4.25182e-14
-6.06751e-14
-2.28652e-14
-5.91552e-15
4.5849e-14
-2.83909e-14
9.4295e-14
-5.3565e-14
-1.3743e-14
-7.0543e-14
1.99099e-14
3.15848e-14
2.27033e-14
7.75493e-15
7.91765e-15
-6.48469e-14
-2.16371e-14
-2.09875e-14
0
-1.24137e-14
0
1.45239e-14
-1.56464e-14
1.68067e-14
8.9986e-15
9.60682e-15
-2.55592e-14
5.41625e-14
-3.42963e-14
1.80218e-14
-9.42833e-15
-3.27321e-15
-4.07113e-14
6.99738e-15
1.61518e-14
9.15606e-15
-2.044e-14
-2.74972e-14
6.98682e-14
-4.72176e-14
3.35771e-14
-3.03048e-14
-2.18164e-14
7.55084e-15
-3.13156e-14
4.05289e-14
-3.35241e-14
4.32723e-14
2.38038e-14
-4.89488e-14
-5.03367e-14
7.59995e-14
-6.3167e-14
1.52626e-14
-8.70064e-15
8.36236e-14
0
1.62339e-14
1.77264e-14
-1.93187e-14
2.09837e-14
0
0
1.32372e-14
-2.13393e-14
-7.62209e-15
0
-2.60281e-14
4.60253e-15
4.86503e-15
-1.02446e-14
-2.41688e-14
8.41019e-15
2.03917e-14
-3.0125e-15
-2.16975e-14
4.44169e-14
-5.49068e-14
5.98297e-14
5.37555e-15
-4.68767e-14
-1.76348e-14
2.24898e-14
4.26032e-14
2.88095e-14
-7.13678e-14
-1.19409e-14
-3.71095e-14
4.86293e-14
-3.96699e-14
-4.63137e-14
9.54213e-14
-7.51342e-14
-3.27278e-14
-8.66698e-14
5.4685e-14
3.19989e-14
1.05087e-13
-2.22942e-14
1.49908e-14
1.63428e-14
-1.77563e-14
0
2.07964e-14
-1.12094e-14
0
1.29213e-14
1.38164e-14
-3.68308e-14
3.12995e-14
0
1.74733e-14
-5.5073e-14
7.44283e-14
5.00217e-15
-7.26167e-14
1.60576e-14
-1.37389e-14
7.29658e-14
-1.02635e-13
8.90413e-14
-3.93083e-14
-3.42976e-15
-1.97219e-14
1.87171e-15
7.41421e-14
-4.67108e-14
-8.44369e-15
-1.0955e-14
-2.49814e-14
-7.05316e-15
2.42663e-15
7.01225e-14
-2.84144e-14
-4.52845e-14
-4.63761e-14
4.211e-14
-6.33441e-14
0
1.45086e-15
-1.26909e-14
-1.384e-14
0
8.15045e-15
0
-9.49961e-15
-2.04329e-14
1.09587e-14
-1.17251e-14
0
6.65333e-15
7.05292e-15
0
-7.84323e-15
1.85043e-14
-1.50293e-14
5.35751e-14
-4.6205e-14
-3.569e-14
4.63226e-14
5.17646e-15
-1.63398e-14
-4.43439e-14
4.35204e-14
3.14427e-15
-5.59155e-14
2.57675e-14
1.07504e-14
4.47864e-14
-5.82235e-14
-4.23291e-14
-1.46352e-14
5.83829e-14
-2.23584e-14
-3.92752e-14
3.5797e-14
6.12234e-14
2.52408e-15
4.14886e-14
-8.5389e-14
1.96568e-14
1.07537e-14
1.17312e-14
0
0
-7.47061e-15
1.61116e-14
0
-9.2983e-15
3.48385e-14
-3.72051e-14
1.13163e-14
0
0
2.01045e-14
-3.16885e-14
-9.21398e-15
3.84211e-15
2.19328e-14
-3.29586e-14
2.54126e-14
1.35089e-14
-4.50973e-14
-4.99688e-15
3.28308e-14
-5.5143e-15
-2.02314e-14
4.38665e-14
7.90514e-15
-1.15508e-14
5.15919e-15
5.36932e-15
2.04622e-14
-1.34957e-14
1.99746e-15
-2.68827e-14
2.56785e-14
2.20052e-14
-2.95334e-14
3.50692e-14
0
2.08216e-15
-1.82384e-14
-9.95132e-15
1.08185e-14
0
0
-6.83498e-15
-7.3531e-15
2.36765e-14
-2.53569e-14
1.80645e-14
-4.81218e-15
-2.04559e-14
8.12891e-15
2.2901e-14
-9.04283e-15
-1.58135e-15
1.81814e-14
-2.06461e-14
-8.91535e-15
-3.67854e-15
1.37086e-14
-2.06858e-15
2.18186e-15
-9.19374e-15
-1.81344e-14
-7.62013e-15
2.66453e-15
-4.74484e-14
3.06537e-14
-2.74429e-14
-7.95065e-15
3.80932e-14
-3.61274e-14
8.93056e-15
-2.77922e-14
1.13335e-13
-6.33522e-14
7.1663e-14
-5.91095e-14
0
5.29657e-15
0
1.68938e-14
-1.83684e-14
9.95479e-15
1.07606e-14
5.80151e-15
-6.24149e-15
0
-7.17834e-15
7.67517e-15
8.18541e-15
2.17718e-14
-4.62095e-15
-9.78067e-15
-1.54798e-14
2.71336e-15
2.41702e-14
-2.52331e-14
-3.08636e-14
7.98645e-15
3.4066e-14
-9.01384e-15
3.81095e-15
4.62665e-14
-1.0604e-13
8.26169e-14
-1.40857e-14
-3.20415e-14
-3.48834e-14
9.19708e-14
-4.52434e-14
-4.87063e-14
3.99537e-14
5.27661e-14
-6.31651e-14
-1.20881e-14
-3.21106e-14
2.21822e-14
5.15617e-14
0
0
0
-7.17364e-15
7.80058e-15
-8.45449e-15
-1.8275e-14
0
0
1.70675e-14
0
3.26098e-15
-2.78443e-14
2.22424e-14
-1.18184e-14
8.35246e-15
1.76615e-14
-1.62908e-14
-1.2227e-15
-2.56049e-15
3.47194e-14
-2.08059e-14
-8.8885e-15
4.7135e-15
-1.33141e-14
1.40868e-14
9.30341e-15
2.35631e-14
-3.10407e-14
3.37562e-14
-6.98047e-14
5.64404e-14
-5.78848e-14
4.60875e-14
3.02364e-14
-4.15717e-14
1.7924e-14
-5.28756e-14
6.1202e-14
2.50858e-14
-7.44537e-14
5.74067e-14
1.77956e-14
1.11595e-14
0
0
7.18271e-15
-7.76137e-15
0
4.49955e-15
1.44926e-14
1.03561e-14
-1.1083e-14
5.91896e-15
-6.31071e-15
3.35768e-15
2.13924e-14
-2.83284e-14
1.59641e-14
-4.20485e-15
2.5392e-14
-4.27485e-14
2.77025e-14
-9.01916e-15
-2.05415e-14
4.50688e-14
-3.23771e-14
1.95968e-14
-2.41864e-14
4.56305e-15
-1.54059e-14
4.56515e-14
-5.33668e-14
5.04604e-14
-2.94107e-14
1.96987e-14
6.43722e-15
9.41386e-15
-2.6668e-14
3.35233e-14
3.79238e-14
-4.09316e-14
-5.23071e-14
-1.18696e-14
0
0
0
-6.10368e-15
6.59363e-15
0
-1.14623e-14
-8.20382e-15
4.39732e-15
0
-1.00635e-14
-1.61101e-14
1.14437e-14
3.04292e-15
3.23005e-15
-8.55248e-15
5.42111e-15
5.71083e-15
9.99498e-15
-9.413e-15
1.23275e-14
-4.77506e-15
-7.6218e-15
-6.75201e-15
-2.15094e-14
1.3688e-14
2.25552e-14
-4.00534e-14
5.85221e-14
-2.27971e-14
4.30312e-14
1.7898e-14
4.42001e-15
-1.73813e-14
3.88396e-14
2.66726e-14
-1.19057e-14
-8.28186e-15
2.87254e-15
0
-5.49701e-15
-8.05677e-15
8.80638e-15
0
5.1875e-15
5.60206e-15
-1.20697e-14
0
3.48252e-15
-3.73361e-15
7.99675e-15
0
-4.56808e-15
4.87356e-15
-5.19204e-15
-5.52234e-15
-4.39701e-15
1.55267e-14
2.29711e-14
-8.64549e-16
-2.54301e-14
9.74838e-15
1.87348e-14
-3.33081e-15
-1.30163e-14
1.00788e-14
4.28768e-14
-5.97816e-14
-1.51017e-15
4.80058e-15
-2.96328e-14
4.47341e-15
-8.87481e-14
1.19287e-14
6.79667e-14
-2.30705e-14
7.72538e-14
-1.80727e-14
2.01729e-14
-6.05277e-14
0
-1.55587e-15
-6.84723e-15
-7.4869e-15
8.14232e-15
0
-4.7596e-15
5.12524e-15
5.5086e-15
-2.95608e-15
0
6.78974e-15
7.26587e-15
1.1653e-14
-8.29859e-15
-1.32828e-14
0
3.7662e-15
2.00049e-14
8.4835e-15
0
-2.60275e-14
6.78469e-15
5.4462e-15
5.8246e-15
-2.17858e-14
-1.99379e-14
6.97081e-14
-7.80521e-14
4.68948e-14
-4.27281e-15
-2.49492e-14
3.68729e-14
-5.34701e-14
8.96742e-16
2.74492e-14
-4.19098e-14
1.1559e-14
-2.75516e-14
5.43814e-14
8.48142e-15
0
-1.98166e-15
5.81947e-15
0
0
7.49481e-15
0
-4.35208e-15
0
0
5.37862e-15
0
-3.08508e-15
-3.30146e-15
-2.4717e-14
1.13218e-14
6.0453e-15
1.50477e-14
-6.87081e-15
9.74481e-15
-5.17304e-15
1.78097e-14
-1.77106e-14
2.37553e-15
-5.09507e-15
2.18423e-14
4.87327e-15
1.98152e-14
-4.68251e-14
6.54831e-14
-3.30213e-14
-1.08256e-14
5.61602e-14
-4.36168e-14
3.08426e-14
2.6661e-14
1.54731e-14
-8.65951e-15
4.66123e-14
-7.15516e-14
1.5718e-14
0
-4.48667e-15
0
-5.41167e-15
-5.88499e-15
-6.36936e-15
-6.86918e-15
1.47789e-14
-3.96767e-15
4.25598e-15
-2.05302e-14
9.77775e-15
2.61857e-15
5.60919e-15
0
-9.64522e-15
0
-1.01181e-14
8.84598e-15
-1.46878e-14
-5.5914e-15
-1.78493e-15
7.70689e-15
9.67438e-15
-1.04051e-14
2.39698e-15
-2.14613e-14
-3.22597e-14
1.87879e-14
1.69588e-14
-2.27005e-15
-2.06407e-14
1.6217e-14
-1.38462e-14
2.13895e-14
-3.37547e-14
1.13488e-13
-4.5189e-14
-1.68781e-14
-5.85678e-14
1.05894e-13
-7.08307e-14
9.52174e-15
0
4.60031e-15
0
-5.41195e-15
0
-3.13573e-15
0
3.60886e-15
0
2.07271e-15
0
0
2.5529e-15
2.7374e-15
0
1.41621e-14
-2.52985e-14
1.44534e-14
-1.25694e-14
3.1012e-15
-2.79549e-15
5.42978e-15
-7.81077e-15
2.80825e-14
2.19519e-14
8.97333e-15
-7.20453e-14
2.55321e-14
2.03396e-15
8.19563e-15
3.34318e-14
-2.01273e-14
1.4143e-14
3.60225e-14
3.54128e-14
-2.21869e-14
-8.74569e-16
1.48943e-14
-5.93241e-15
-6.71631e-14
6.06068e-15
7.14092e-15
0
4.25115e-15
4.59729e-15
9.90449e-15
0
2.85369e-15
6.11731e-15
-1.63882e-14
3.51299e-15
3.76662e-15
-6.06114e-15
4.33741e-15
1.51401e-14
-1.50174e-14
2.1524e-14
-9.40153e-15
-2.02172e-14
1.25385e-14
3.59276e-15
0
5.26992e-16
4.56369e-15
0
1.33669e-15
-4.33914e-15
8.60495e-15
-5.92058e-15
3.56456e-14
1.57929e-14
-3.83471e-14
-3.50327e-14
2.04119e-14
-8.65364e-15
7.87272e-14
-1.03016e-13
6.75554e-14
-5.73794e-14
-7.45891e-14
6.45802e-14
0
0
6.64432e-15
-3.61177e-15
3.904e-15
0
0
-2.41844e-15
-2.5909e-15
2.77573e-15
-5.95033e-15
0
5.1393e-15
-3.68215e-15
-9.90313e-16
-2.13284e-15
9.19532e-15
-3.71953e-15
-1.13752e-14
1.95102e-14
-9.36708e-15
1.86616e-14
-2.02663e-14
1.50116e-14
2.01192e-14
-3.84145e-14
7.70837e-15
2.09453e-15
-1.51749e-14
5.77071e-15
6.44717e-14
-4.86122e-14
1.741e-14
-1.65922e-14
2.04654e-14
-2.55277e-14
-2.32709e-14
1.25755e-14
2.80268e-14
-8.06535e-14
6.32569e-14
-4.65146e-15
-5.14959e-15
-5.64375e-15
0
-3.31397e-15
0
0
-4.09684e-15
4.38668e-15
-4.69826e-15
0
-5.40366e-15
5.80595e-15
-1.56179e-15
3.36595e-15
-2.72441e-15
3.92598e-15
-3.18681e-15
-4.60494e-15
-1.24922e-15
2.03568e-14
-9.61023e-15
-8.05679e-15
-3.07544e-15
-8.63025e-15
1.04701e-15
1.37243e-14
-3.74926e-15
5.83984e-14
-1.75484e-14
-1.59224e-14
1.1608e-14
-3.61306e-14
-4.27122e-15
-7.00557e-15
4.7233e-14
-2.79101e-14
1.30366e-13
-5.58077e-14
-1.01879e-13
4.71735e-14
-1.92148e-13
0
0
0
1.48048e-13
-1.3852e-13
-1.29534e-13
1.21064e-13
0
0
-9.85006e-14
9.18516e-14
-8.56023e-14
7.97324e-14
0
0
0
-2.38664e-13
0
0
0
0
0
0
-7.02877e-14
6.50239e-14
0
-1.11119e-13
5.13167e-14
0
0
-8.06213e-14
-1.48628e-13
0
0
0
0
0
0
-4.14735e-14
-3.80918e-14
0
6.41895e-14
0
0
0
4.53647e-14
0
3.80578e-14
0
-3.18873e-14
0
2.66854e-14
-2.44016e-14
0
0
0
0
-3.10813e-14
0
0
-2.36446e-14
0
0
0
0
0
-1.36125e-14
0
0
0
-9.39002e-15
0
3.89623e-15
0
0
-1.399e-13
1.31344e-13
-1.2325e-13
1.15595e-13
1.0836e-13
-1.01524e-13
0
-8.89758e-14
-8.32279e-14
-7.78084e-14
7.27014e-14
0
0
5.91043e-14
0
1.02674e-13
0
-8.89759e-14
-8.27566e-14
0
0
6.63581e-14
0
5.71101e-14
0
0
-9.08114e-14
8.40348e-14
-7.77216e-14
0
0
0
0
-5.21821e-14
0
-4.4338e-14
4.08403e-14
0
0
3.18288e-14
-2.92647e-14
-2.68956e-14
4.94158e-14
4.53778e-14
-4.16532e-14
-3.82196e-14
-3.50558e-14
-3.21422e-14
2.94602e-14
-2.69928e-14
2.47237e-14
-2.26381e-14
2.07219e-14
0
0
-1.58645e-14
1.45049e-14
-2.65167e-14
2.42317e-14
0
0
0
0
0
0
0
-1.16884e-14
1.06607e-14
9.7217e-15
-8.86392e-15
0
-3.68262e-15
0
1.23074e-13
-1.15838e-13
0
1.02477e-13
-1.92637e-13
-1.80973e-13
8.49664e-14
0
-7.4803e-14
7.01327e-14
0
0
5.7617e-14
5.39045e-14
-1.00807e-13
1.88415e-13
8.79906e-14
0
7.66304e-14
0
0
-6.20136e-14
0
-5.36982e-14
4.99253e-14
-4.63908e-14
4.30818e-14
0
-3.70914e-14
0
0
0
5.46175e-14
5.05232e-14
0
0
3.98635e-14
3.67973e-14
-6.78995e-14
-3.13068e-14
-2.88555e-14
0
0
0
-4.14537e-14
0
0
0
0
0
2.49083e-14
2.28492e-14
0
-3.8413e-14
0
-1.61221e-14
2.95271e-14
-1.35153e-14
0
0
0
0
0
-1.58129e-14
1.44478e-14
0
1.20524e-14
0
-2.00904e-14
0
-8.36538e-15
0
3.48057e-15
2.69448e-13
0
-9.5855e-14
0
8.51112e-14
8.01486e-14
0
0
0
6.27458e-14
-5.89519e-14
-1.10721e-13
5.1962e-14
0
-9.14166e-14
8.56725e-14
-8.02469e-14
0
1.40582e-13
0
0
-5.73871e-14
1.07151e-13
0
0
0
4.04662e-14
-7.53408e-14
3.50475e-14
0
3.02846e-14
0
0
4.84428e-14
4.49153e-14
0
-3.85474e-14
3.56808e-14
-3.30094e-14
3.05214e-14
-2.82059e-14
0
2.40508e-14
-2.21917e-14
2.0466e-14
-3.77303e-14
3.47623e-14
0
0
0
4.98646e-14
0
0
1.93423e-14
1.77582e-14
-1.62975e-14
1.49513e-14
0
0
0
0
0
0
-1.61938e-14
1.48164e-14
0
1.23926e-14
2.26581e-14
-1.03541e-14
9.46068e-15
-8.64227e-15
0
7.20673e-15
0
4.44325e-14
8.39485e-14
-7.9276e-14
7.48364e-14
0
-6.66135e-14
0
-5.92005e-14
0
-1.0505e-13
-4.94425e-14
-9.30407e-14
4.37508e-14
8.22539e-14
0
-3.62895e-14
0
1.2783e-13
5.99331e-14
5.617e-14
0
0
0
0
8.05789e-14
0
3.51385e-14
0
3.05767e-14
0
5.30924e-14
0
4.59879e-14
0
0
-3.69134e-14
-3.42662e-14
3.17907e-14
0
2.73169e-14
0
-2.34205e-14
2.1668e-14
2.00359e-14
-1.85168e-14
1.71038e-14
-3.1581e-14
2.91412e-14
-2.68763e-14
2.47752e-14
0
2.10225e-14
1.93515e-14
0
-1.6375e-14
1.50532e-14
0
0
-1.1665e-14
-1.07059e-14
0
1.8015e-14
0
0
1.38656e-14
-1.26984e-14
0
0
9.73564e-15
1.78105e-14
0
-7.44472e-15
0
-6.21724e-15
3.66314e-14
-1.38602e-13
-6.55331e-14
-1.239e-13
1.17087e-13
-1.10611e-13
0
4.9304e-14
0
4.3888e-14
0
-1.17016e-13
7.34979e-14
3.46083e-14
3.2578e-14
-3.06532e-14
8.64866e-14
-5.42009e-14
1.01854e-13
-9.56554e-14
0
-4.21203e-14
3.94971e-14
3.7018e-14
0
0
3.03786e-14
-5.68211e-14
0
4.96147e-14
-4.63228e-14
2.16124e-14
0
-3.75721e-14
6.99983e-14
0
0
2.81924e-14
-2.62013e-14
2.43368e-14
2.25921e-14
-4.1921e-14
1.94357e-14
0
1.66827e-14
1.54433e-14
5.71523e-14
0
2.44214e-14
-2.25584e-14
0
0
-1.77249e-14
1.63396e-14
0
-1.38652e-14
1.27633e-14
1.17437e-14
1.08006e-14
0
0
1.67609e-14
-1.53891e-14
0
-1.2958e-14
-1.18838e-14
0
0
-9.14704e-15
-1.67543e-14
0
-7.01966e-15
6.42286e-15
5.8751e-15
6.0395e-14
2.85975e-14
0
-1.02505e-13
4.84959e-14
1.37622e-13
-8.67603e-14
1.64035e-13
0
0
0
9.79172e-14
0
2.90545e-14
-2.73966e-14
0
2.43293e-14
6.87374e-14
-1.29412e-13
8.11785e-14
-3.81742e-14
3.58861e-14
-3.3719e-14
0
5.94519e-14
-2.78894e-14
2.6153e-14
0
0
-4.29958e-14
4.02332e-14
1.88137e-14
-3.5171e-14
3.28566e-14
0
-5.72522e-14
2.66969e-14
0
0
-2.15805e-14
-4.01598e-14
-3.73458e-14
1.73544e-14
0
2.9929e-14
-1.3884e-14
-2.57485e-14
0
0
4.0921e-14
0
3.50103e-14
0
0
1.37977e-14
0
1.17431e-14
-1.08255e-14
-9.97475e-15
-9.18647e-15
0
0
1.43127e-14
-1.31578e-14
-1.2091e-14
0
0
0
-8.58647e-15
7.87476e-15
0
-1.32326e-14
6.06148e-15
0
-7.46754e-14
9.43868e-14
0
-4.238e-14
-4.01457e-14
-3.80192e-14
3.59956e-14
-1.36281e-13
0
1.21984e-13
-1.15355e-13
-2.72628e-14
-2.57645e-14
0
-2.29867e-14
0
-8.19145e-14
1.15909e-13
-3.64326e-14
0
-3.23553e-14
-3.04718e-14
2.86855e-14
5.39836e-14
0
-7.15967e-14
4.48501e-14
-4.21226e-14
1.97707e-14
1.85498e-14
-5.21862e-14
3.26087e-14
0
-2.86011e-14
2.67643e-14
2.50317e-14
0
-2.18594e-14
0
3.80923e-14
-1.77632e-14
-1.65572e-14
1.54242e-14
-1.43605e-14
1.33624e-14
-1.24265e-14
-3.46486e-14
0
-3.98388e-14
0
0
1.58835e-14
-1.47123e-14
1.362e-14
-1.26018e-14
0
-1.07707e-14
9.94958e-15
0
-8.47715e-15
0
0
0
-1.22342e-14
1.12624e-14
0
0
8.76252e-15
-8.05226e-15
-7.3965e-15
6.79139e-15
0
-5.71892e-15
1.049e-14
1.43619e-13
-1.36266e-13
1.10798e-13
-1.4011e-13
0
6.29728e-14
-1.19368e-13
5.65536e-14
5.35738e-14
-1.01476e-13
9.60779e-14
0
-4.30279e-14
-4.07039e-14
-3.84935e-14
1.09175e-13
-3.43931e-14
0
4.60315e-14
2.8972e-14
-2.7342e-14
-5.15879e-14
2.4324e-14
2.29285e-14
-4.32083e-14
-4.06953e-14
3.83118e-14
7.21037e-14
0
-3.18801e-14
0
2.81377e-14
-5.28302e-14
4.95711e-14
0
0
4.08246e-14
-1.91131e-14
0
0
1.56397e-14
0
-2.72886e-14
0
2.37532e-14
-3.32132e-14
-1.03143e-14
9.60365e-15
0
-1.66231e-14
0
1.43535e-14
0
0
2.29346e-14
-3.18854e-14
-9.84549e-15
-9.11514e-15
8.43434e-15
7.80016e-15
0
1.33212e-14
-1.23e-14
0
1.04705e-14
0
0
8.19316e-15
-7.54283e-15
6.94093e-15
0
-5.86956e-15
-1.07882e-14
0
2.02922e-13
-8.02838e-14
-3.04877e-14
-5.78782e-14
1.3732e-13
0
-4.94429e-14
-7.03423e-14
0
0
1.99796e-14
-7.57311e-14
8.96816e-14
3.39758e-14
0
3.04531e-14
-8.64569e-14
5.45288e-14
2.57858e-14
-4.87594e-14
-6.91281e-14
4.35434e-14
-6.1691e-14
5.82471e-14
0
3.45783e-14
3.26108e-14
-9.22289e-14
2.89702e-14
0
2.56926e-14
0
2.27456e-14
0
2.00993e-14
-1.88804e-14
-1.77267e-14
1.66352e-14
0
-4.38816e-14
1.37053e-14
1.28346e-14
0
0
-1.05064e-14
0
-1.83369e-14
0
1.59656e-14
1.48848e-14
-1.38693e-14
0
-1.20205e-14
1.1181e-14
-1.03941e-14
9.6571e-15
-8.96718e-15
0
0
-7.15484e-15
6.62866e-15
-6.13777e-15
0
-1.05074e-14
0
-1.79492e-14
-8.2877e-15
7.64941e-15
0
0
5.99659e-15
-5.52383e-15
5.08595e-15
4.68062e-15
-8.36203e-14
0
2.51612e-14
0
-3.40493e-14
4.31109e-14
2.04656e-14
1.94275e-14
-1.65948e-13
1.04982e-13
6.64002e-14
-1.25967e-13
8.95956e-14
0
5.36834e-14
-1.01752e-13
7.23046e-14
-4.56592e-14
0
3.07008e-14
-1.93712e-14
1.09971e-13
-1.73368e-14
-6.55741e-14
7.74831e-14
0
1.38334e-14
-2.61261e-14
1.23312e-14
2.32718e-14
0
-3.10461e-14
1.95072e-14
2.75667e-14
0
-1.62903e-14
3.06539e-14
-2.8828e-14
0
2.54598e-14
0
-3.36621e-14
-1.05267e-14
3.94819e-14
-9.25035e-15
-8.66461e-15
3.24464e-14
0
0
1.32674e-14
-2.47866e-14
0
1.07957e-14
1.00673e-14
9.38261e-15
-1.7479e-14
1.62715e-14
-7.56937e-15
-7.03835e-15
-6.54082e-15
6.07496e-15
-1.12781e-14
0
9.70113e-15
-8.98976e-15
8.32591e-15
7.70683e-15
0
6.59255e-15
6.09247e-15
-5.62736e-15
5.19506e-15
-4.79352e-15
0
-1.14856e-13
6.55181e-14
1.03804e-13
-7.89328e-14
-1.31278e-13
3.56422e-14
1.01594e-13
-3.21709e-14
1.2223e-13
-1.45101e-14
-4.13341e-14
-1.30806e-14
-2.48327e-14
9.42691e-14
-4.47242e-14
-4.24286e-14
2.01213e-14
0
1.80896e-14
5.14385e-14
-3.24961e-14
-1.53932e-14
4.37384e-14
-6.90257e-14
1.30683e-14
2.47345e-14
-2.34008e-14
1.10661e-14
2.09257e-14
-5.93357e-14
0
1.76515e-14
3.3333e-14
0
-1.48418e-14
0
0
0
2.34279e-14
1.10294e-14
-1.03802e-14
0
0
-8.62929e-15
8.10624e-15
0
0
1.33995e-14
-2.51238e-14
1.17706e-14
-2.20464e-14
2.06355e-14
0
-2.70736e-14
8.43303e-15
-1.57518e-14
7.35138e-15
0
-6.39391e-15
0
0
1.03282e-14
-1.92144e-14
0
0