/*--------------------------------*- C++ -*----------------------------------*\
| =========                 |                                                 |
| \\      /  F ield         | OpenFOAM: The Open Source CFD Toolbox           |
|  \\    /   O peration     | Version:  2312                                  |
|   \\  /    A nd           | Website:  www.openfoam.com                      |
|    \\/     M anipulation  |                                                 |
\*---------------------------------------------------------------------------*/
FoamFile
{
    version     2.0;
    format      ascii;
    arch        "LSB;label=32;scalar=64";
    class       volScalarField;
    location    "0";
    object      magR;
}
// * * * * * * * * * * * * * * * * * * * * * * * * * * * * * * * * * * * * * //

dimensions      [0 2 -2 0 0 0 0];

internalField   nonuniform List<scalar> 
11040
(
0.766965
0.749603
0.745983
0.737844
0.726207
0.713995
0.70293
0.693691
0.686343
0.680667
0.676452
0.673414
0.671276
0.669792
0.668713
0.66783
0.666972
0.665972
0.664723
0.663099
0.661071
0.658098
0.653928
0.649273
0.644505
0.639619
0.634658
0.629644
0.62461
0.619576
0.614565
0.609596
0.604682
0.599849
0.59512
0.590488
0.585949
0.58156
0.577303
0.573196
0.56921
3.1441e-17
1.18177e-16
6.15523e-17
1.54034e-17
1.46606e-17
8.67359e-17
8.56108e-17
4.56563e-17
8.03312e-17
0
1.10834e-16
1.77086e-17
2.33807e-17
1.75994e-16
8.66098e-17
7.89178e-17
1.4699e-16
6.85432e-17
6.39162e-17
5.97512e-17
1.13028e-16
2.84372e-17
2.24862e-17
1.00273e-17
1.01327e-17
1.77973e-18
2.98529e-17
5.99244e-17
5.89592e-17
2.22212e-17
5.2673e-17
6.1144e-17
6.10975e-17
5.91079e-17
6.23037e-17
1.96776e-17
5.92553e-17
6.47345e-17
6.93456e-17
9.7482e-18
5.8364e-17
2.44723e-17
2.35523e-17
7.58816e-17
8.90877e-17
1.16235e-17
4.61908e-17
7.07345e-17
8.27381e-20
9.95406e-17
1.16109e-16
9.23844e-17
8.0448e-17
7.67151e-17
7.19887e-17
1.0617e-18
6.63264e-17
3.32024e-17
1.39727e-17
5.49037e-17
1.00102e-16
6.40694e-18
9.25201e-17
9.44164e-17
8.22573e-18
2.30838e-17
9.25784e-17
5.62606e-17
4.91329e-17
9.46547e-17
1.45163e-18
5.09159e-17
1.62847e-17
4.31929e-17
1.46206e-18
5.83006e-17
5.08112e-17
3.23348e-17
4.94721e-17
5.21842e-17
9.55719e-17
5.84573e-17
7.32657e-17
7.06604e-17
7.29466e-17
6.36331e-18
3.1101e-19
3.29799e-17
9.75053e-17
4.42062e-17
2.77582e-17
7.97563e-17
8.68785e-17
7.57823e-17
2.45968e-17
6.37828e-17
5.50504e-17
1.29386e-17
5.17328e-17
4.07787e-18
4.60028e-17
8.10067e-17
7.67886e-17
7.81949e-17
7.5797e-17
1.38112e-17
7.8631e-17
1.54213e-16
1.50341e-17
7.80814e-17
7.65408e-17
3.96836e-17
3.90508e-17
4.3854e-17
1.35209e-17
3.99872e-17
4.60713e-17
3.9964e-17
4.81104e-17
2.63591e-17
1.48515e-17
1.48606e-17
3.77087e-17
5.30533e-17
6.67461e-17
7.23354e-17
3.52382e-17
3.0401e-17
7.68555e-17
3.71693e-17
2.3717e-17
6.28181e-17
3.78287e-19
1.7984e-19
5.42872e-17
3.14804e-18
1.1893e-17
4.67903e-17
4.47046e-17
4.25962e-17
3.80631e-17
5.46044e-19
2.27241e-18
1.08054e-17
1.9925e-17
1.38671e-17
1.22551e-17
1.23299e-17
6.17137e-17
6.19167e-17
2.47927e-17
3.35033e-17
3.06247e-17
5.55358e-18
1.13111e-17
1.0968e-17
3.36773e-17
2.17978e-17
3.09261e-17
0
4.73709e-17
1.55178e-17
3.52612e-17
1.96686e-19
2.49221e-17
4.46715e-17
5.09201e-17
5.58902e-17
2.65215e-17
5.19189e-17
5.99879e-17
5.16951e-17
3.63487e-17
5.18802e-17
9.39793e-17
8.4932e-17
7.58493e-18
3.89982e-17
1.42023e-17
3.67725e-17
3.7768e-17
1.10412e-17
5.01096e-18
5.46714e-17
9.01261e-18
5.28661e-17
9.38266e-18
7.15573e-18
5.2287e-17
9.06923e-18
5.45479e-17
5.30147e-17
2.66661e-17
1.2629e-17
8.96307e-18
2.4666e-17
2.50684e-17
5.44824e-17
3.54101e-17
2.76114e-17
2.84921e-17
4.48353e-17
2.68612e-17
2.71318e-17
1.81835e-17
3.76591e-18
6.25541e-17
4.01901e-17
4.00663e-17
8.53466e-18
4.6021e-17
4.30238e-17
1.64997e-17
1.38928e-17
1.49281e-17
1.27459e-17
7.01482e-17
1.02515e-18
3.18762e-17
3.05966e-17
5.72495e-17
2.65183e-17
8.73817e-18
8.15109e-18
3.84319e-18
3.93799e-18
1.0101e-17
1.18e-17
1.17858e-17
8.41646e-17
4.52004e-17
4.28964e-17
4.4002e-17
7.45828e-18
4.25242e-17
2.20969e-17
2.11725e-17
1.92546e-17
3.38518e-17
2.63584e-17
2.3191e-17
2.0211e-17
4.19064e-17
2.58916e-17
3.15036e-17
3.89966e-18
5.60713e-18
3.74217e-17
3.71069e-17
3.08819e-17
2.47517e-17
2.09155e-17
2.34256e-17
2.02245e-18
3.19517e-17
2.84664e-17
3.25394e-17
1.08243e-17
1.84403e-17
2.63032e-17
2.69304e-17
4.60064e-17
2.08704e-17
1.28395e-17
1.82211e-17
1.55995e-17
2.58433e-18
3.41477e-17
9.54201e-18
3.6593e-17
1.08477e-17
9.00611e-18
2.69975e-17
4.00433e-17
1.90944e-17
2.1136e-17
1.81153e-17
3.16593e-17
2.00049e-17
1.08409e-17
8.42776e-18
8.50674e-18
1.70896e-17
3.33157e-17
1.85203e-17
1.68531e-21
2.14209e-18
9.3273e-21
5.31015e-18
2.99157e-17
1.9903e-17
1.87288e-17
0
6.3847e-17
3.1757e-17
4.85107e-17
9.36042e-18
7.11375e-19
7.0928e-19
4.05105e-17
3.49921e-17
2.84281e-17
2.11344e-17
8.75395e-18
3.21869e-17
5.50501e-18
2.84483e-17
2.59054e-17
6.27129e-18
1.21545e-17
1.49174e-18
3.04965e-17
3.09099e-17
1.32439e-17
3.13589e-17
2.79278e-17
2.24914e-17
2.50849e-17
1.48074e-17
1.49877e-17
1.53245e-17
1.46615e-17
1.5576e-17
1.40582e-17
4.64697e-19
1.31233e-17
1.30436e-17
1.75458e-18
1.71811e-17
3.28311e-18
2.68498e-17
1.43432e-17
2.43354e-17
4.34184e-17
2.3057e-17
1.35134e-17
2.30992e-17
1.14401e-18
2.02791e-17
1.93506e-17
2.31809e-17
3.89962e-17
6.38004e-17
7.95942e-18
2.56861e-17
9.16309e-18
2.32776e-17
2.36863e-17
4.92691e-18
2.31917e-17
2.14176e-17
2.3703e-17
2.25081e-17
1.83132e-17
2.02974e-17
9.9514e-18
2.62886e-17
7.15677e-18
1.17051e-17
2.41048e-17
1.39086e-17
1.12716e-17
2.66557e-17
7.11858e-19
1.99611e-17
2.4014e-17
4.00327e-18
1.33395e-17
3.26031e-17
1.2448e-17
2.18012e-17
2.14532e-17
2.6931e-17
1.04512e-17
1.89208e-17
1.08339e-17
1.7258e-17
1.45424e-17
1.80324e-17
5.50567e-18
1.41174e-17
2.50927e-17
9.06408e-18
4.73394e-18
2.13026e-18
1.02684e-17
1.84438e-18
2.37524e-17
2.05985e-17
1.00494e-17
5.29287e-18
1.25456e-17
6.42803e-18
2.05027e-17
5.64329e-18
2.59912e-17
2.18819e-17
1.33441e-17
3.25342e-18
1.44181e-18
8.14079e-18
1.33655e-17
4.59394e-18
1.93172e-17
2.13232e-17
1.71113e-17
1.65306e-17
3.38289e-18
1.93521e-17
3.49832e-18
1.29469e-17
9.5176e-18
1.56159e-17
6.79689e-18
2.09168e-17
8.65292e-18
7.72517e-18
8.6181e-18
1.88672e-17
1.89762e-17
2.60722e-17
5.1764e-18
2.38644e-17
2.04307e-17
1.15101e-17
1.21734e-17
4.69079e-18
4.12849e-18
9.73737e-18
9.54921e-18
6.22285e-18
1.52432e-17
1.04452e-17
2.60639e-17
1.88027e-17
2.29131e-17
9.77332e-18
1.59159e-17
2.89132e-17
8.46629e-18
2.67419e-18
1.45546e-17
1.49901e-17
7.97526e-18
1.12355e-17
1.88562e-17
3.02732e-17
1.09441e-17
1.50899e-17
1.96233e-17
2.15924e-17
2.24437e-17
1.02485e-17
3.32051e-18
2.82445e-18
1.41633e-17
1.38775e-17
9.94091e-18
2.58656e-17
1.54159e-17
1.1524e-17
1.5638e-17
2.8546e-17
2.00901e-17
8.88106e-18
1.55425e-17
1.53565e-17
1.23613e-17
1.29312e-17
9.89185e-18
3.3757e-17
1.03848e-18
3.15129e-17
1.42976e-17
1.33524e-18
5.86417e-18
1.62787e-17
2.4703e-18
1.0792e-17
1.73936e-17
4.50548e-18
1.73236e-17
2.67683e-17
3.08318e-18
1.39921e-17
1.50743e-17
1.20679e-17
2.35527e-17
2.15098e-17
1.1185e-17
3.27662e-18
1.85783e-17
1.63431e-17
1.20554e-17
7.00171e-18
6.7378e-18
1.44112e-17
6.58244e-18
1.90912e-17
1.13351e-17
4.59152e-18
1.86468e-17
1.47173e-17
1.11689e-17
4.19865e-18
8.30372e-18
4.5553e-18
1.20489e-17
2.65119e-18
1.23466e-17
1.99566e-17
1.93969e-17
8.05647e-18
1.1317e-17
1.08213e-17
8.38891e-18
9.25783e-18
8.55117e-18
1.11672e-17
4.80468e-18
1.03135e-17
1.03849e-17
8.73453e-18
3.04437e-18
9.58511e-18
1.25279e-17
2.02876e-17
7.46222e-18
2.47655e-18
6.12342e-18
1.05433e-17
3.95994e-18
1.77712e-18
7.94632e-19
1.54559e-17
1.09231e-17
1.09004e-17
3.60735e-18
2.16129e-18
7.52531e-18
1.35924e-18
1.75394e-17
1.14847e-17
1.90654e-17
2.06499e-17
1.00066e-17
1.57875e-17
6.44162e-18
1.50048e-17
1.46975e-17
1.60072e-17
5.47788e-18
1.32555e-18
1.73047e-17
7.40113e-18
7.62545e-18
5.25838e-18
7.73505e-18
6.57328e-18
1.10344e-17
1.61161e-17
1.15309e-17
1.33943e-17
9.87118e-18
1.80844e-18
1.62912e-17
1.09486e-17
1.11632e-17
2.19587e-17
2.56759e-17
2.34914e-17
1.2991e-17
8.12585e-18
4.09044e-18
6.4677e-18
1.13422e-17
7.68165e-18
5.47206e-18
9.3865e-18
5.63127e-18
1.03983e-17
1.36404e-17
9.31039e-18
9.72888e-18
5.01732e-18
7.66282e-18
2.43936e-18
7.56183e-18
1.07648e-17
1.76642e-17
2.28335e-17
1.72914e-17
3.20193e-18
6.25235e-18
9.64308e-18
1.25609e-17
8.85877e-18
3.60552e-18
1.0947e-17
2.10049e-17
2.71665e-17
2.37846e-17
2.31407e-18
1.78493e-17
1.12557e-17
7.1068e-18
2.0643e-17
2.12417e-17
1.14353e-17
1.98224e-18
1.63145e-17
1.74197e-17
1.43372e-17
8.7914e-18
0
1.96577e-20
6.27493e-18
5.45638e-18
7.93204e-18
8.71635e-18
4.26604e-18
8.95996e-18
9.57427e-18
3.37397e-18
1.32856e-17
1.13288e-17
3.56648e-18
7.62733e-18
1.2424e-17
1.65809e-17
7.08032e-18
1.29724e-17
1.3464e-17
7.52565e-18
4.28898e-18
7.68415e-18
1.29396e-17
1.46367e-17
1.66209e-17
2.55572e-18
1.02785e-17
4.63218e-18
8.50146e-19
6.14847e-18
1.53864e-17
2.87572e-17
1.83246e-17
1.10454e-17
1.00192e-17
5.86459e-18
1.02931e-17
1.56328e-17
1.84877e-17
1.29493e-17
6.77558e-18
2.65705e-18
6.81237e-18
7.32224e-18
7.88388e-18
7.5122e-18
4.35177e-18
5.03132e-18
1.29631e-17
2.23446e-17
8.31318e-18
1.48811e-17
8.8545e-18
8.76432e-18
4.6563e-18
9.79597e-18
2.02171e-17
4.53728e-18
1.07436e-17
8.82927e-18
2.88334e-18
1.25231e-17
8.96098e-18
4.80925e-18
6.91904e-18
1.40114e-18
7.65729e-18
3.33336e-18
1.0113e-17
1.06738e-17
1.48367e-18
1.5772e-18
2.11796e-18
1.17931e-17
1.05072e-17
3.52065e-18
9.35731e-19
1.02494e-17
6.83662e-18
1.87114e-17
1.02495e-17
2.11348e-18
1.17722e-18
5.41028e-18
7.18162e-18
4.46851e-18
4.55024e-18
2.5474e-18
5.76858e-18
4.02827e-18
8.48643e-18
2.57439e-18
4.77073e-18
1.02584e-17
9.67001e-19
9.85796e-18
5.21841e-18
9.2561e-18
2.53843e-18
7.17646e-18
9.44627e-18
4.83636e-18
4.69315e-18
8.19571e-18
1.11032e-17
2.76548e-18
2.46362e-18
1.38438e-17
6.61002e-18
5.21788e-18
4.48155e-18
7.33779e-18
3.13171e-18
2.55752e-18
2.79792e-18
6.39912e-18
3.04096e-18
1.58164e-18
6.32207e-18
6.38521e-18
3.57968e-18
1.31003e-18
1.47074e-17
2.39916e-17
3.45317e-18
5.91258e-18
1.4916e-18
6.31956e-18
3.5967e-18
7.40192e-18
4.74517e-18
8.32081e-18
1.12357e-17
8.18284e-18
3.86937e-18
4.9755e-18
1.07216e-17
5.22552e-18
9.80074e-18
1.28312e-18
1.33329e-18
3.51908e-18
1.39428e-18
6.95082e-18
6.66105e-18
5.74845e-18
6.75293e-18
6.9372e-18
7.84843e-18
4.19498e-18
1.39067e-17
1.98818e-17
2.98462e-18
3.03855e-18
1.229e-17
9.34718e-18
1.88444e-18
2.40714e-17
3.34991e-17
8.26636e-18
3.37867e-18
6.25228e-18
1.35893e-17
1.6234e-17
2.17381e-17
5.41924e-19
3.91444e-18
1.84868e-18
5.23509e-18
3.43251e-18
1.83533e-18
3.52833e-18
2.28619e-18
3.04974e-18
5.53199e-18
8.48208e-18
7.1393e-18
2.66685e-18
1.06806e-17
6.43319e-18
2.54693e-18
4.65322e-18
8.21135e-18
7.63194e-18
1.19565e-17
1.09882e-17
1.27311e-17
2.91274e-18
1.06246e-17
9.37537e-18
6.07328e-18
9.62814e-18
1.44794e-17
1.84663e-17
1.23018e-17
9.77262e-18
1.15048e-17
1.52752e-17
7.05223e-18
4.2587e-18
2.64446e-17
2.51277e-17
1.26724e-17
3.9799e-18
3.89781e-18
1.03715e-17
7.18375e-19
4.10726e-19
6.21009e-19
2.60479e-18
1.81088e-18
6.70146e-18
2.75045e-18
7.15757e-18
7.3269e-18
4.4767e-18
4.19464e-18
5.97154e-18
8.32987e-19
7.0276e-18
3.77034e-18
2.92899e-18
4.03208e-18
3.18017e-18
3.5808e-18
6.04686e-18
4.65696e-18
9.59698e-19
4.41943e-18
6.5701e-18
8.6524e-18
6.35117e-18
4.73583e-18
1.74478e-17
3.77426e-18
1.03099e-17
1.72777e-18
9.28069e-18
3.93997e-18
2.62319e-18
1.67441e-18
1.68443e-18
4.23702e-18
1.50137e-17
2.31065e-17
5.71808e-18
3.13196e-18
3.40982e-18
1.851e-18
4.0973e-18
5.35157e-18
2.31025e-18
5.36987e-18
3.87909e-18
5.79925e-18
2.25647e-18
7.16886e-18
6.79555e-19
3.71124e-18
1.27831e-17
8.98154e-18
7.91705e-18
2.12838e-18
4.51925e-18
6.41335e-18
6.7665e-18
2.81093e-18
3.29705e-18
1.18522e-17
9.98998e-18
2.13659e-18
8.44847e-18
4.80545e-18
5.38951e-18
1.23375e-17
3.22964e-18
2.1066e-17
1.03002e-17
3.52699e-18
7.11962e-18
1.0837e-17
1.46809e-17
4.2103e-18
1.24618e-17
8.65776e-18
6.57942e-18
1.17285e-17
1.34428e-20
2.42961e-18
4.43559e-18
5.91315e-18
2.85759e-18
8.76594e-18
3.40269e-18
4.01556e-19
3.20895e-18
3.0675e-18
4.91001e-18
3.36526e-18
6.12314e-18
3.3538e-18
6.67041e-18
6.14936e-18
5.11222e-18
3.28767e-18
2.40998e-18
3.57053e-18
1.23606e-18
3.21261e-18
1.14363e-17
4.41221e-18
2.3055e-18
4.77183e-18
4.38558e-18
4.71029e-18
7.1727e-18
7.50912e-18
8.98001e-18
6.21567e-18
1.62265e-18
1.19049e-17
2.32259e-18
9.65257e-19
5.63924e-18
8.91764e-18
1.59403e-17
6.07136e-19
2.59998e-18
3.84158e-18
2.30551e-18
9.96563e-19
3.85295e-18
1.53096e-18
2.44946e-18
2.96937e-18
6.07951e-18
1.74569e-18
7.36298e-18
8.72327e-18
1.66771e-18
3.5576e-19
1.84033e-18
7.78296e-18
4.85151e-18
1.08821e-18
4.12539e-18
9.01624e-18
7.59e-18
2.29101e-18
1.17655e-18
3.16489e-18
5.8486e-18
1.50739e-18
3.94019e-18
1.76139e-18
4.36319e-18
3.88638e-18
9.05386e-18
4.1474e-18
5.05568e-18
9.0843e-18
1.22982e-18
6.55904e-18
8.10578e-18
2.30429e-18
1.63605e-18
1.22664e-17
1.29986e-18
3.80947e-18
7.27037e-21
2.73212e-18
3.47229e-18
3.27735e-18
3.67429e-18
1.50816e-18
2.90832e-18
3.60194e-18
1.84452e-18
2.89577e-18
6.17409e-18
1.38404e-18
3.62549e-18
6.16213e-18
2.53834e-18
2.34284e-18
3.34822e-18
7.8135e-18
4.78845e-18
1.76284e-18
5.65434e-18
6.52178e-18
8.08165e-18
1.25199e-17
4.55123e-18
7.15273e-18
4.64386e-18
2.71122e-18
3.94112e-18
6.84713e-18
8.78077e-18
1.08096e-17
8.01472e-18
1.19385e-17
4.6819e-18
7.17967e-18
1.47224e-17
1.5662e-17
1.29599e-18
7.78287e-18
4.36475e-18
2.09328e-18
2.26186e-18
1.55381e-18
1.00859e-18
6.36806e-19
2.50467e-18
2.17482e-18
2.27061e-18
2.97171e-18
1.31312e-18
3.74009e-18
3.53139e-18
4.37895e-18
2.41931e-18
5.95226e-18
1.76776e-18
3.08477e-18
7.57792e-18
8.95975e-18
2.10002e-18
2.23941e-18
2.83483e-18
2.47611e-18
4.7121e-18
2.59518e-18
4.86412e-18
5.56234e-18
8.66838e-18
5.20196e-19
8.57262e-18
1.60986e-18
1.07567e-17
2.24538e-18
6.15043e-18
6.28557e-18
1.7504e-18
3.25597e-18
6.69233e-18
2.4945e-18
7.5491e-18
6.4228e-19
1.0615e-17
0
7.57861e-19
4.7891e-19
3.04155e-19
2.83172e-18
2.8312e-18
3.35057e-18
1.32316e-18
1.76226e-18
3.72468e-18
1.16102e-18
4.52858e-18
4.03658e-18
1.83958e-18
6.17577e-18
3.64691e-18
6.90843e-19
5.49752e-18
4.59379e-18
2.13392e-18
4.47027e-18
1.94067e-18
3.66265e-18
2.32488e-18
2.71335e-18
6.75642e-18
2.69121e-18
3.12824e-18
1.83788e-18
2.52916e-18
4.76911e-18
6.3952e-18
1.06967e-17
6.17917e-18
8.87567e-18
4.37984e-18
6.16529e-18
9.43014e-18
1.01697e-17
3.81056e-18
1.66894e-18
3.37896e-18
2.43206e-18
8.62266e-19
2.95414e-19
1.59189e-18
7.03528e-19
2.06589e-18
3.45711e-18
1.93805e-18
4.74515e-19
4.22291e-19
2.35819e-18
1.35808e-18
1.97611e-18
1.25568e-18
1.91227e-18
2.72853e-18
1.25187e-18
1.9413e-18
4.05858e-18
3.30142e-18
3.42278e-18
1.90107e-18
2.09257e-18
1.52369e-18
1.42632e-18
2.21906e-18
8.38489e-18
6.32197e-18
7.36742e-18
1.67373e-18
2.11216e-18
1.53983e-18
2.71734e-18
2.81348e-18
1.67855e-18
4.15007e-18
3.61083e-18
2.43542e-18
4.18685e-18
8.45208e-18
2.67595e-18
5.21002e-19
1.65931e-18
1.727e-18
5.15459e-19
4.0876e-18
2.57778e-18
1.68136e-18
2.16838e-18
2.1603e-18
4.65474e-18
3.86741e-18
1.07388e-18
1.13261e-18
2.9067e-18
6.0762e-19
1.62787e-18
2.65073e-18
3.5917e-18
2.00125e-18
4.5221e-18
5.96732e-19
3.64324e-18
2.91117e-18
1.84038e-18
8.19624e-19
7.6733e-19
2.06883e-18
7.04643e-19
4.05218e-18
4.10432e-18
7.48856e-18
8.66202e-18
8.90168e-18
9.43596e-18
3.72859e-18
4.41606e-18
8.16463e-18
1.89806e-18
5.46571e-19
8.0711e-18
2.82649e-19
4.38148e-19
2.93699e-18
1.48584e-18
9.8677e-19
2.02696e-18
2.81342e-19
2.42822e-18
3.23611e-19
2.11356e-18
2.26209e-18
5.08934e-18
5.03469e-18
2.95466e-18
3.13984e-18
4.8906e-18
2.41229e-18
4.46431e-18
3.34777e-18
1.81367e-18
5.48324e-19
3.73654e-18
5.57926e-18
8.12403e-18
5.27954e-18
1.1469e-18
2.3161e-18
1.79936e-18
4.30112e-18
4.59848e-18
5.28891e-18
8.92645e-18
1.49951e-18
3.64442e-18
5.90434e-18
9.12676e-18
7.13191e-18
2.39067e-18
1.06355e-18
4.31837e-18
1.23434e-18
2.0202e-18
1.11024e-18
2.90156e-18
2.80249e-18
1.51341e-18
1.04429e-18
2.69957e-18
1.67478e-18
2.73137e-18
3.74443e-19
2.61423e-18
1.21982e-18
2.16889e-18
1.20328e-18
1.91901e-18
1.3987e-18
2.29645e-18
4.21236e-19
4.79906e-18
6.71086e-18
4.94962e-18
2.42995e-18
2.1014e-18
3.5445e-18
2.92821e-18
1.4461e-18
3.7446e-18
7.80601e-18
1.12024e-18
1.83951e-18
7.76763e-18
6.7072e-18
4.37242e-18
3.20622e-18
3.94923e-18
1.53595e-18
6.48951e-18
5.80747e-18
6.82673e-18
4.7647e-18
1.23713e-17
1.98239e-18
1.79364e-19
1.98576e-18
2.37621e-18
7.52934e-19
2.22752e-18
2.38525e-18
0
1.56005e-18
1.54432e-18
3.1372e-18
9.34284e-19
4.90703e-19
2.05831e-18
3.96707e-18
3.46294e-18
1.57205e-18
5.2632e-18
1.55127e-18
3.23206e-18
3.3454e-18
7.09009e-18
6.34498e-18
3.84345e-18
1.17001e-18
4.24732e-18
8.37129e-18
8.80426e-18
8.495e-19
4.48174e-18
3.62695e-18
2.81192e-19
2.87068e-18
4.57149e-18
2.56969e-18
6.06434e-18
2.52902e-18
8.429e-18
7.94307e-18
4.7814e-18
1.11024e-17
2.45576e-20
1.68654e-18
1.65803e-18
1.74529e-18
2.4126e-18
7.92349e-19
1.97794e-18
1.19802e-18
0
2.07832e-18
7.90749e-19
1.57592e-18
1.66168e-18
1.46898e-18
2.74744e-18
1.0337e-18
4.95898e-19
4.71401e-18
7.05175e-18
8.88442e-19
3.49772e-18
2.72813e-18
1.9636e-18
4.69972e-18
2.47394e-19
4.68486e-18
7.12367e-18
1.21945e-18
1.09693e-18
9.03407e-19
9.82137e-19
7.33464e-19
5.3651e-19
2.38827e-18
2.03294e-18
4.8877e-18
1.87973e-18
9.27929e-18
4.15177e-18
2.43504e-18
1.00157e-17
1.17129e-18
1.38155e-18
1.47433e-18
2.29286e-19
7.81246e-19
1.54309e-18
1.89607e-18
6.44389e-19
1.55543e-18
2.34041e-18
3.85414e-18
1.70372e-18
7.73217e-19
2.00981e-18
1.26804e-18
2.76e-18
5.89047e-19
1.84719e-18
4.24215e-18
2.4302e-18
1.75483e-18
2.65519e-18
2.28128e-18
8.95262e-19
1.24324e-18
9.93017e-19
7.1766e-19
2.89526e-18
4.18168e-19
4.25707e-18
1.24733e-18
3.32052e-18
2.75183e-18
5.17929e-19
1.89708e-18
8.3205e-18
5.5353e-18
2.2234e-18
6.39637e-18
7.79744e-19
3.05878e-20
1.33035e-19
1.31541e-18
1.28324e-18
2.56713e-18
1.59078e-18
1.06028e-18
1.1492e-18
1.03967e-18
1.24497e-18
2.22463e-18
1.0246e-18
9.53192e-19
6.10606e-19
1.15075e-18
2.97905e-18
3.00445e-18
2.7422e-18
1.96372e-18
8.7747e-19
1.2988e-18
3.31322e-18
3.90123e-19
2.22506e-18
1.58448e-18
6.11719e-19
2.92169e-18
2.15596e-18
2.53654e-18
2.85589e-18
1.73453e-18
3.49328e-19
1.23728e-18
1.58997e-18
2.28633e-18
5.46029e-18
1.39857e-18
1.30752e-17
8.85047e-18
8.64448e-18
5.94267e-18
7.38341e-19
1.47858e-19
1.73977e-19
1.98497e-18
1.08664e-18
4.29424e-19
7.89757e-19
5.00525e-19
1.27615e-18
8.20752e-19
1.09505e-18
6.56683e-19
1.10195e-18
1.72887e-18
3.09394e-18
1.6555e-19
1.03589e-18
1.75988e-18
1.55702e-19
2.10181e-18
2.64547e-18
2.18829e-18
2.81099e-18
5.98128e-19
1.81477e-18
4.41849e-18
6.9717e-18
1.05577e-17
3.30429e-18
3.88837e-18
6.71295e-19
4.77005e-18
1.67536e-18
4.62016e-18
4.48402e-18
1.39974e-18
2.46948e-18
4.86328e-18
4.73325e-18
6.7819e-18
1.62562e-18
1.98804e-18
6.3215e-19
6.85196e-19
4.67394e-19
7.43e-19
1.23715e-18
1.07571e-18
0
1.55348e-19
1.35099e-18
1.11108e-18
8.28141e-19
2.49816e-18
1.18958e-18
5.82848e-19
1.01808e-18
1.77027e-18
1.65318e-18
2.71599e-19
1.01044e-18
4.09981e-18
3.26718e-18
1.74128e-18
1.84984e-18
2.34638e-18
2.07994e-18
3.19562e-18
3.22994e-18
1.59308e-18
4.60216e-18
9.1697e-18
5.71234e-18
5.03624e-18
2.47233e-18
5.28298e-18
4.38774e-18
1.88057e-18
6.94261e-18
9.08776e-18
1.83813e-18
4.88036e-18
6.76349e-18
1.19288e-18
2.34538e-19
1.44128e-19
7.1437e-19
3.65889e-19
9.19556e-19
6.09926e-19
1.06474e-18
1.93262e-18
7.0574e-19
1.54685e-18
2.72135e-19
1.21528e-18
1.02835e-18
1.13008e-18
2.69887e-18
1.55924e-18
9.7239e-19
2.09228e-18
2.98802e-18
1.40166e-18
2.11945e-18
4.21954e-18
3.92527e-18
4.20268e-19
1.82217e-18
1.23462e-18
1.48021e-18
1.40227e-18
5.24682e-18
5.01748e-18
5.0017e-18
5.39033e-19
5.46069e-19
1.26477e-18
2.22217e-18
1.27418e-18
2.8464e-18
2.07977e-18
2.4239e-18
6.35239e-18
1.01231e-18
1.43576e-19
1.22061e-18
8.63189e-19
5.48921e-19
5.60595e-19
1.14153e-18
1.80097e-18
6.97494e-19
3.37112e-19
6.5701e-19
6.15794e-19
9.61852e-19
1.85771e-18
3.58228e-19
7.53402e-19
1.22646e-18
1.30208e-18
9.24045e-19
7.00492e-19
2.22513e-18
1.20346e-18
1.96373e-18
7.60151e-19
1.14946e-18
1.4379e-18
1.9027e-18
1.13807e-18
5.64012e-18
4.22576e-18
3.12103e-18
1.89733e-18
4.27961e-18
2.0778e-18
1.22794e-18
5.53793e-18
1.39858e-18
2.14007e-18
3.34276e-18
2.30905e-18
4.98367e-19
6.11115e-19
9.78488e-19
1.07656e-18
1.16503e-18
8.0931e-19
8.44374e-19
1.4571e-18
5.91227e-19
1.01319e-18
6.99928e-19
4.16424e-20
4.45368e-20
1.35004e-18
8.67605e-19
1.18524e-18
4.07391e-19
1.42738e-18
8.8091e-19
1.55261e-18
1.01115e-18
2.15267e-18
2.96983e-18
1.29755e-18
1.21406e-18
2.63448e-18
2.30217e-18
4.40226e-18
4.34031e-18
2.48623e-18
3.0072e-18
7.37448e-19
9.8829e-19
1.09076e-17
8.21327e-19
6.89344e-18
9.5095e-19
6.54132e-18
7.63036e-18
3.94772e-18
1.28488e-18
2.32443e-20
1.32281e-19
4.29591e-19
4.85484e-19
9.65962e-19
1.27724e-18
2.01637e-19
1.73502e-19
8.287e-19
1.63497e-18
2.42964e-19
7.27255e-19
8.96261e-19
7.29773e-19
5.31978e-19
1.52942e-18
4.51219e-19
3.77555e-19
6.73331e-19
1.3679e-18
7.35658e-19
1.8634e-18
1.17569e-18
8.6366e-19
2.86318e-19
1.95073e-18
1.37594e-19
4.16734e-18
4.76629e-18
3.78219e-18
1.028e-18
2.15229e-18
1.5155e-18
3.99839e-18
1.67237e-18
1.14351e-18
4.92745e-18
3.0232e-19
3.88135e-18
5.5491e-18
6.62396e-19
9.55773e-18
7.64729e-19
8.42132e-19
9.9975e-19
4.41767e-19
2.34171e-19
1.49163e-19
7.00739e-19
1.33069e-18
5.11146e-19
6.39709e-19
4.69872e-19
3.89087e-19
1.66051e-18
2.52838e-18
4.81182e-19
3.35646e-19
2.12665e-18
1.56138e-18
1.43056e-18
6.47513e-19
3.86405e-18
1.10751e-18
3.4172e-18
1.02985e-18
2.14143e-18
7.69931e-19
3.18941e-18
5.34745e-18
4.53077e-18
2.10175e-18
6.88839e-19
4.22996e-18
7.00131e-18
3.22609e-20
1.44695e-18
6.40916e-18
4.68133e-18
9.26982e-18
7.28457e-18
2.44081e-18
8.85451e-18
3.80306e-19
2.26054e-19
2.06754e-19
7.63092e-19
3.34948e-19
8.63708e-19
9.81585e-19
5.30193e-19
7.62308e-19
1.66687e-18
1.38014e-18
7.47769e-19
8.39764e-19
6.04546e-19
8.93625e-19
1.06569e-18
1.41173e-18
1.3955e-18
9.83187e-19
4.55405e-19
9.02454e-19
8.63021e-19
6.73708e-19
2.33128e-19
5.71048e-19
4.63353e-18
1.09168e-18
2.50908e-18
1.98941e-18
2.79545e-18
4.82944e-19
4.10982e-18
1.52814e-18
6.40389e-18
7.13258e-18
7.667e-18
1.67074e-18
4.506e-19
1.91967e-18
2.07885e-18
8.31632e-18
7.93339e-20
5.25461e-19
5.79419e-19
8.63149e-19
6.83583e-19
2.97767e-19
8.54071e-19
5.36492e-19
1.78239e-19
4.55362e-19
6.52545e-19
4.78074e-19
6.89141e-19
6.10164e-19
9.71951e-19
8.7317e-19
1.85099e-18
1.98206e-18
1.48439e-18
4.37869e-19
4.56105e-19
1.85867e-18
1.81621e-19
1.58886e-19
2.51474e-18
3.42804e-19
5.36078e-19
6.04128e-18
1.7454e-18
4.10478e-19
1.18487e-18
3.20849e-18
2.23078e-18
2.79448e-19
1.79859e-18
4.77811e-18
3.66427e-18
4.93359e-18
1.34181e-18
2.33204e-18
7.94537e-18
6.73291e-20
2.31155e-19
4.13541e-19
9.38714e-20
6.92929e-19
7.61578e-19
2.85609e-19
3.17586e-19
4.60136e-19
1.45401e-18
5.19147e-19
5.27331e-19
9.57486e-19
2.55311e-19
1.37497e-18
5.96068e-19
2.2112e-18
1.84644e-18
2.37402e-18
1.97995e-18
1.13002e-18
1.43668e-19
1.40522e-19
1.48605e-18
7.68448e-19
1.12457e-18
1.53193e-18
1.0612e-19
2.19362e-18
3.4297e-18
2.66376e-18
3.12679e-18
5.83282e-18
3.34986e-19
1.61212e-18
5.89541e-18
2.30723e-18
2.23313e-18
1.05646e-17
1.37494e-18
7.60349e-18
2.97618e-19
7.93278e-19
8.14713e-19
5.30161e-19
8.3825e-19
3.43378e-19
4.05782e-19
3.88788e-19
4.16514e-19
5.73854e-19
8.67325e-19
1.13029e-19
6.06486e-19
2.31404e-19
3.75815e-19
8.6798e-19
9.46015e-19
5.58261e-19
1.39281e-18
2.03428e-18
9.23907e-19
2.1926e-18
2.34307e-18
2.18348e-18
3.86449e-20
2.9342e-18
3.4126e-18
1.27527e-18
5.44829e-19
5.22857e-19
4.20022e-18
4.91618e-18
1.18004e-18
9.37962e-19
2.64177e-18
1.09683e-18
2.21889e-18
2.96832e-18
9.16801e-19
6.88468e-18
1.49266e-17
6.20736e-19
6.67183e-19
7.58546e-19
2.22593e-19
4.9696e-19
1.10907e-19
6.11321e-19
6.3047e-19
5.19792e-19
5.78706e-19
5.23301e-19
6.42686e-19
3.65739e-19
5.76763e-19
7.96297e-19
2.20848e-19
1.17306e-19
5.70221e-20
4.11794e-19
5.64192e-19
2.26842e-18
1.13371e-18
3.52686e-19
1.00739e-18
5.95002e-19
8.61915e-19
2.38028e-18
1.83403e-18
5.02849e-18
3.43436e-18
1.09519e-18
2.04093e-18
5.72633e-20
2.26809e-18
8.8745e-19
3.19038e-18
8.96082e-18
1.05885e-17
4.72283e-18
3.80569e-18
7.49951e-19
9.17712e-18
4.17101e-18
1.25682e-18
2.69884e-18
1.11229e-17
8.65572e-18
8.09259e-18
1.39795e-17
3.56536e-18
5.28734e-18
1.13847e-17
9.93048e-18
9.74362e-18
8.76594e-18
4.08235e-18
3.0395e-18
3.30059e-18
8.09343e-17
2.03866e-18
2.0624e-19
1.75692e-18
4.38502e-18
1.50521e-18
1.53051e-18
4.76507e-18
3.81318e-18
1.21173e-18
3.92303e-17
4.71238e-19
2.28691e-18
2.08928e-18
2.35705e-19
5.03586e-17
1.03582e-18
2.6572e-18
6.39793e-19
2.1524e-18
2.07376e-18
2.8947e-18
9.93096e-19
7.96194e-19
6.47204e-19
2.26891e-17
6.47646e-19
7.91983e-19
1.45126e-18
3.0833e-17
5.35105e-19
4.31547e-19
5.11491e-19
7.26471e-20
3.79242e-19
2.45432e-19
2.77916e-19
7.36988e-19
9.74475e-19
2.42658e-19
3.11831e-19
1.10731e-17
8.42808e-19
4.53364e-19
1.59602e-17
2.41542e-19
1.80357e-19
4.61686e-19
1.11224e-17
3.56051e-19
9.16474e-18
8.25159e-20
2.48679e-19
2.07734e-19
2.757e-19
9.66458e-20
4.57182e-19
1.85854e-17
1.80133e-17
3.60707e-18
4.86144e-18
8.59962e-18
9.0157e-18
8.75401e-18
5.69244e-18
6.44427e-18
2.97546e-18
1.51239e-18
6.58156e-18
1.09459e-17
1.19516e-17
6.50198e-18
5.66912e-18
8.08443e-18
3.01015e-18
6.66258e-18
2.47433e-18
4.59459e-18
6.25334e-18
1.96997e-18
4.64239e-18
3.26425e-18
9.03608e-18
8.79347e-19
4.31344e-18
5.33262e-18
3.39014e-18
2.85937e-18
2.63281e-18
2.19607e-18
1.22879e-18
2.93837e-18
1.53739e-18
1.72716e-19
1.49053e-18
2.39468e-18
5.53664e-19
5.5956e-18
2.21695e-18
2.28138e-19
6.1198e-19
3.6913e-19
2.03987e-19
4.00787e-19
4.2722e-19
1.51548e-19
1.30639e-18
1.95914e-18
1.88551e-18
5.44133e-19
1.16167e-18
3.80632e-19
1.43822e-19
1.27634e-19
5.90453e-19
5.33753e-19
9.79283e-19
1.06939e-18
1.55456e-18
4.45295e-19
2.03846e-18
1.1191e-18
7.90881e-19
1.03084e-18
3.85928e-19
1.12082e-19
5.89308e-19
7.17986e-19
7.9692e-20
2.42157e-19
4.36049e-19
2.88167e-18
4.05903e-18
7.78816e-18
3.49564e-18
1.27973e-17
9.17711e-18
1.86025e-17
1.18569e-17
1.11073e-17
1.67963e-18
2.19759e-18
1.92712e-18
1.55274e-18
8.44578e-18
8.36073e-19
1.22031e-17
7.60698e-18
1.32137e-18
8.42219e-19
2.88201e-18
8.39722e-18
9.79834e-19
4.09045e-18
3.3846e-18
5.52573e-18
6.27743e-18
4.0819e-18
3.21495e-19
5.30721e-19
4.35192e-18
2.52514e-18
2.59564e-18
2.40998e-18
8.20584e-19
1.50432e-18
3.48576e-19
2.24766e-19
5.18965e-20
1.08555e-18
1.25379e-18
6.88641e-19
4.23378e-19
3.93349e-19
8.97572e-19
1.6577e-19
2.13505e-18
1.81674e-18
1.83399e-19
1.18434e-18
1.30278e-18
9.98554e-19
3.74546e-19
1.6812e-19
4.95609e-19
7.09237e-19
1.29115e-18
3.55094e-19
6.52685e-19
2.9918e-20
7.26074e-19
1.73319e-19
2.33862e-19
9.72906e-19
8.90994e-19
3.50105e-19
4.25587e-19
3.95501e-19
7.95953e-19
1.6804e-19
3.77467e-19
2.71548e-19
7.97489e-19
2.90738e-19
2.94564e-20
3.16376e-17
1.12263e-17
7.05311e-19
1.9942e-18
8.37792e-18
1.28544e-18
1.35654e-18
9.89278e-18
3.94834e-18
6.44439e-18
7.79554e-18
6.51132e-18
7.64652e-19
1.59046e-18
2.78937e-18
7.65267e-18
4.70964e-18
3.30393e-18
8.25794e-18
4.83287e-18
1.36021e-18
9.36663e-19
7.0685e-18
2.19842e-18
4.8018e-18
6.06259e-18
6.51326e-19
3.31471e-18
1.12435e-18
6.40971e-19
4.44189e-18
1.28002e-18
1.91701e-18
4.03115e-19
6.89441e-19
1.84057e-18
1.97864e-18
3.13882e-18
4.35488e-18
1.79656e-18
2.92228e-18
1.54583e-18
1.56553e-19
3.83024e-19
1.5008e-18
1.65914e-18
1.78569e-18
7.09583e-19
1.53246e-18
9.97795e-19
1.10529e-18
5.14572e-19
9.26048e-19
1.13481e-18
1.174e-18
9.59311e-19
2.4833e-19
4.03535e-19
7.51531e-19
1.02272e-18
1.08305e-18
4.25685e-19
1.39326e-19
1.34304e-19
5.42944e-19
7.99674e-19
1.00101e-18
5.01569e-20
4.5761e-19
8.33006e-19
2.56228e-19
4.69514e-19
2.3042e-19
7.74496e-19
1.38017e-17
2.89787e-18
1.8012e-17
1.54054e-17
1.44716e-18
2.96118e-18
2.80525e-18
8.68612e-18
7.38684e-18
2.47486e-18
1.51786e-18
2.34713e-18
2.00643e-18
7.83706e-18
5.09868e-18
2.77832e-18
6.491e-18
7.02658e-18
5.8748e-19
3.29428e-18
4.09227e-19
1.10125e-18
2.02773e-18
3.15924e-18
5.90652e-18
2.76922e-18
3.11216e-18
3.47086e-18
2.7734e-18
6.38772e-19
1.56283e-18
1.81381e-18
1.01819e-18
8.35079e-20
5.84833e-19
1.62617e-18
1.00915e-18
1.8644e-18
1.73029e-18
1.60204e-18
1.12501e-18
3.46853e-19
9.53926e-19
2.05595e-18
1.63343e-18
1.76002e-18
4.63369e-19
2.29464e-19
1.77438e-18
5.55734e-19
3.39838e-19
3.11341e-19
5.76184e-19
7.84328e-19
1.20534e-18
1.11174e-18
4.09087e-19
7.70907e-19
2.09751e-19
3.18327e-19
7.25108e-19
4.69058e-20
4.03413e-19
1.25692e-19
7.22481e-19
5.69679e-19
4.9195e-20
6.12718e-20
2.89876e-19
1.04529e-18
1.37832e-19
4.38596e-19
2.0643e-19
3.68304e-19
4.30214e-18
9.18669e-18
1.40389e-18
5.52013e-18
1.11621e-17
7.34694e-18
2.48611e-18
4.4283e-18
6.17385e-18
5.15786e-18
4.28018e-18
1.25786e-17
5.92607e-18
5.58031e-18
8.59716e-18
1.17042e-17
2.16032e-18
4.49597e-18
6.04364e-18
8.46437e-18
4.00037e-18
5.00723e-18
6.14394e-19
3.25712e-18
1.01773e-18
9.55488e-19
3.1658e-18
2.16486e-18
8.66863e-19
1.83231e-18
4.42828e-18
4.44401e-18
1.19391e-18
1.10579e-18
5.13034e-18
1.91498e-18
9.43198e-19
2.06751e-18
3.4575e-18
1.78392e-18
2.00913e-18
1.56524e-18
2.53024e-20
1.05632e-18
7.45086e-19
4.60979e-19
2.51832e-18
7.91233e-19
1.07514e-18
3.45507e-19
3.1317e-19
0
2.07899e-18
2.16711e-18
8.82712e-19
4.1637e-19
5.70038e-19
1.52885e-20
6.37392e-19
5.8424e-19
4.03062e-19
2.54251e-19
6.91751e-19
8.321e-19
1.89937e-19
3.48726e-19
3.32428e-19
2.92989e-19
4.11166e-19
4.9817e-19
6.77932e-19
2.1419e-19
2.92291e-19
6.93431e-19
2.36808e-18
1.00936e-17
4.82508e-18
9.02713e-18
6.40262e-18
8.77073e-18
7.69777e-18
1.80559e-17
4.59154e-18
1.02073e-17
2.03164e-18
2.87089e-18
5.4467e-18
4.47121e-18
2.85332e-19
7.59998e-19
2.13971e-18
7.40819e-18
9.62336e-18
7.73461e-18
6.72368e-18
4.74242e-18
5.01987e-19
4.94716e-19
4.37446e-18
5.78381e-18
4.26122e-18
4.80543e-19
2.39299e-18
1.2619e-18
6.4842e-19
2.80087e-18
1.86891e-19
1.44546e-18
3.99372e-20
4.2069e-19
2.3522e-18
3.28409e-18
3.40767e-18
2.532e-18
2.06339e-18
1.39051e-18
2.30083e-18
1.30451e-19
1.75522e-18
8.17775e-19
1.14371e-19
3.54761e-19
9.71917e-19
1.20513e-18
1.12044e-18
1.5397e-18
1.66121e-18
4.48786e-19