/*--------------------------------*- C++ -*----------------------------------*\
| =========                 |                                                 |
| \\      /  F ield         | OpenFOAM: The Open Source CFD Toolbox           |
|  \\    /   O peration     | Version:  2312                                  |
|   \\  /    A nd           | Website:  www.openfoam.com                      |
|    \\/     M anipulation  |                                                 |
\*---------------------------------------------------------------------------*/
FoamFile
{
    version     2.0;
    format      ascii;
    arch        "LSB;label=32;scalar=64";
    class       volScalarField;
    location    "0";
    object      turbulenceProperties:I;
}
// * * * * * * * * * * * * * * * * * * * * * * * * * * * * * * * * * * * * * //

dimensions      [0 0 0 0 0 0 0];

internalField   nonuniform List<scalar> 
11040
(
0.0254621
0.0251555
0.02508
0.0249336
0.0247306
0.0245182
0.0243251
0.0241631
0.0240337
0.0239333
0.0238586
0.0238047
0.0237667
0.0237405
0.0237215
0.023706
0.0236911
0.0236738
0.0236521
0.0236237
0.0235882
0.0235357
0.0234616
0.0233784
0.0232929
0.0232048
0.0231151
0.023024
0.0229322
0.02284
0.0227479
0.0226561
0.022565
0.022475
0.0223866
0.0222997
0.0222142
0.0221313
0.0220505
0.0219724
0.0218963
1.62675e-10
3.15913e-10
2.28394e-10
1.14092e-10
1.11308e-10
2.70394e-10
2.6873e-10
1.96479e-10
2.60037e-10
0
3.0539e-10
1.22365e-10
1.40943e-10
3.84837e-10
2.70036e-10
2.57695e-10
3.51693e-10
2.40165e-10
2.31917e-10
2.24229e-10
3.08411e-10
1.5469e-10
1.37621e-10
9.20766e-11
9.25546e-11
3.86986e-11
1.58876e-10
2.24569e-10
2.22753e-10
1.36808e-10
2.10529e-10
2.26885e-10
2.26798e-10
2.23078e-10
2.29023e-10
1.28986e-10
2.23356e-10
2.33596e-10
2.41608e-10
9.0788e-11
2.21626e-10
1.4352e-10
1.40957e-10
2.52704e-10
2.74189e-10
9.91099e-11
1.98011e-10
2.44149e-10
8.34395e-12
2.89435e-10
3.12942e-10
2.78891e-10
2.60202e-10
2.54073e-10
2.46141e-10
2.98896e-11
2.36391e-10
1.67791e-10
1.08432e-10
2.15e-10
2.9029e-10
7.35825e-11
2.79026e-10
2.81867e-10
8.3396e-11
1.40046e-10
2.79114e-10
2.17592e-10
2.03386e-10
2.82302e-10
3.495e-11
2.07103e-10
1.17341e-10
1.90645e-10
3.50753e-11
2.21532e-10
2.07577e-10
1.65349e-10
2.04084e-10
2.09742e-10
2.83706e-10
2.21829e-10
2.48828e-10
2.4443e-10
2.48353e-10
7.31746e-11
1.61773e-11
1.66987e-10
2.86598e-10
1.9292e-10
1.53198e-10
2.59212e-10
2.70712e-10
2.52582e-10
1.43935e-10
2.31729e-10
2.15228e-10
1.04343e-10
2.08728e-10
5.87154e-11
1.96799e-10
2.61096e-10
2.54236e-10
2.56523e-10
2.52548e-10
1.08188e-10
2.57245e-10
3.60237e-10
1.1253e-10
2.56367e-10
2.53803e-10
1.82749e-10
1.81325e-10
1.92195e-10
1.06914e-10
1.83434e-10
1.96934e-10
1.83381e-10
2.01242e-10
1.49288e-10
1.11844e-10
1.12301e-10
1.78131e-10
2.11794e-10
2.37325e-10
2.47171e-10
1.72213e-10
1.60623e-10
2.54323e-10
1.76853e-10
1.416e-10
2.29912e-10
1.78414e-11
1.23016e-11
2.13871e-10
5.14682e-11
1.00038e-10
1.98439e-10
1.93965e-10
1.89336e-10
1.78969e-10
2.14355e-11
4.38238e-11
9.55836e-11
1.29508e-10
1.08032e-10
1.01992e-10
1.02298e-10
2.27886e-10
2.28274e-10
1.44506e-10
1.68003e-10
1.60529e-10
6.85206e-11
9.77799e-11
9.6299e-11
1.6834e-10
1.35758e-10
1.61366e-10
0
1.99677e-10
1.14271e-10
1.72253e-10
1.28649e-11
1.44814e-10
1.94146e-10
2.07449e-10
2.17037e-10
1.49403e-10
2.09404e-10
2.24673e-10
2.08582e-10
1.75112e-10
2.08939e-10
2.81257e-10
2.67339e-10
8.00618e-11
1.81204e-10
1.09797e-10
1.75951e-10
1.78281e-10
9.65111e-11
6.50919e-11
2.1451e-10
8.73679e-11
2.10974e-10
8.91624e-11
7.77636e-11
2.09772e-10
8.75656e-11
2.14258e-10
2.11226e-10
1.49837e-10
1.03587e-10
8.70553e-11
1.44069e-10
1.4525e-10
2.14129e-10
1.72722e-10
1.52466e-10
1.54987e-10
1.94529e-10
1.50343e-10
1.51186e-10
1.23986e-10
5.64289e-11
2.29981e-10
1.84269e-10
1.8391e-10
8.49264e-11
1.96818e-10
1.90328e-10
1.17886e-10
1.08383e-10
1.12132e-10
1.03813e-10
2.4296e-10
2.93706e-11
1.63777e-10
1.605e-10
2.19489e-10
1.4939e-10
8.59525e-11
8.30184e-11
5.70038e-11
5.77028e-11
9.24149e-11
9.9652e-11
1.00057e-10
2.66127e-10
1.95037e-10
1.89993e-10
1.92435e-10
7.94061e-11
1.89194e-10
1.36441e-10
1.33486e-10
1.27299e-10
1.6925e-10
1.49177e-10
1.39829e-10
1.3041e-10
1.87784e-10
1.47718e-10
1.63007e-10
5.74066e-11
6.88552e-11
1.7758e-10
1.76707e-10
1.61592e-10
1.44581e-10
1.32771e-10
1.40738e-10
4.12532e-11
1.64017e-10
1.54782e-10
1.65559e-10
9.54833e-11
1.24866e-10
1.48812e-10
1.50674e-10
1.96756e-10
1.32531e-10
1.03961e-10
1.24122e-10
1.14846e-10
4.67279e-11
1.69513e-10
9.00344e-11
1.75511e-10
9.55581e-11
8.72633e-11
1.51087e-10
1.83685e-10
1.26878e-10
1.33679e-10
1.23538e-10
1.63506e-10
1.29857e-10
9.55284e-11
8.46198e-11
8.46058e-11
1.19918e-10
1.67434e-10
1.24868e-10
1.19085e-12
4.24559e-11
2.80154e-12
6.69529e-11
1.5868e-10
1.29519e-10
1.25913e-10
0
2.31965e-10
1.63591e-10
2.02044e-10
8.87912e-11
2.44663e-11
2.44302e-11
1.84993e-10
1.72006e-10
1.54915e-10
1.33385e-10
8.62125e-11
1.64585e-10
6.83029e-11
1.54721e-10
1.47646e-10
7.26473e-11
1.01375e-10
3.54864e-11
1.60243e-10
1.61297e-10
1.05645e-10
1.6256e-10
1.53324e-10
1.37764e-10
1.45501e-10
1.1189e-10
1.12331e-10
1.13619e-10
1.11341e-10
1.14512e-10
1.08892e-10
1.97744e-11
1.0512e-10
1.04766e-10
3.84243e-11
1.20239e-10
5.26278e-11
1.50674e-10
1.10241e-10
1.43275e-10
1.91248e-10
1.39476e-10
1.06891e-10
1.39479e-10
3.10266e-11
1.3075e-10
1.27672e-10
1.39853e-10
1.81255e-10
2.31764e-10
8.20176e-11
1.4702e-10
8.80187e-11
1.39981e-10
1.41209e-10
6.45353e-11
1.39708e-10
1.34258e-10
1.4123e-10
1.37638e-10
1.24309e-10
1.30883e-10
9.17291e-11
1.48833e-10
7.79653e-11
9.92513e-11
1.4242e-10
1.0827e-10
9.73895e-11
1.49817e-10
2.44746e-11
1.29716e-10
1.42161e-10
5.818e-11
1.06039e-10
1.65934e-10
1.02345e-10
1.3571e-10
1.3463e-10
1.50537e-10
9.39978e-11
1.26322e-10
9.55978e-11
1.20565e-10
1.10629e-10
1.23456e-10
6.80969e-11
1.09255e-10
1.45312e-10
8.76394e-11
6.33832e-11
4.24292e-11
9.2986e-11
3.94882e-11
1.41464e-10
1.31705e-10
9.21796e-11
6.67423e-11
1.02776e-10
7.37208e-11
1.31387e-10
6.90756e-11
1.48054e-10
1.3571e-10
1.06341e-10
5.24479e-11
3.48315e-11
8.29654e-11
1.06187e-10
6.24739e-11
1.27573e-10
1.3427e-10
1.20164e-10
1.18336e-10
5.34738e-11
1.27926e-10
5.43725e-11
1.04748e-10
8.94933e-11
1.14921e-10
7.56399e-11
1.32691e-10
8.56933e-11
8.08202e-11
8.55275e-11
1.26254e-10
1.26559e-10
1.48428e-10
6.63128e-11
1.41776e-10
1.31138e-10
9.84339e-11
1.01227e-10
6.29699e-11
5.89406e-11
9.07348e-11
8.99702e-11
7.25361e-11
1.13263e-10
9.40775e-11
1.48354e-10
1.26086e-10
1.39113e-10
9.09045e-11
1.15744e-10
1.56424e-10
8.44831e-11
4.75479e-11
1.10933e-10
1.1233e-10
8.19202e-11
9.72465e-11
1.25977e-10
1.59906e-10
9.60862e-11
1.13042e-10
1.28707e-10
1.35117e-10
1.37757e-10
9.28674e-11
5.29016e-11
4.88559e-11
1.09292e-10
1.0828e-10
9.15333e-11
1.4757e-10
1.13897e-10
9.87097e-11
1.14899e-10
1.55382e-10
1.30266e-10
8.65226e-11
1.14636e-10
1.13936e-10
1.01988e-10
1.04363e-10
9.14542e-11
1.68696e-10
2.9626e-11
1.63162e-10
1.09723e-10
3.35896e-11
7.04142e-11
1.17318e-10
4.56719e-11
9.54355e-11
1.21111e-10
6.16472e-11
1.20952e-10
1.50337e-10
5.09353e-11
1.08521e-10
1.12764e-10
1.01005e-10
1.41013e-10
1.3486e-10
9.71552e-11
5.26339e-11
1.253e-10
1.17487e-10
1.00719e-10
7.67856e-11
7.533e-11
1.10223e-10
7.44631e-11
1.26821e-10
9.79147e-11
6.2232e-11
1.25433e-10
1.11355e-10
9.70816e-11
5.95828e-11
8.37882e-11
6.19414e-11
1.00698e-10
4.74609e-11
1.01976e-10
1.29824e-10
1.27983e-10
8.24584e-11
9.76531e-11
9.55835e-11
8.42994e-11
8.82631e-11
8.5108e-11
9.69811e-11
6.36274e-11
9.32336e-11
9.37793e-11
8.59309e-11
5.07018e-11
8.98156e-11
1.02703e-10
1.30866e-10
7.94531e-11
4.58711e-11
7.18138e-11
9.44179e-11
5.79722e-11
3.87636e-11
2.58584e-11
1.14047e-10
9.61036e-11
9.60018e-11
5.51003e-11
4.26939e-11
7.96724e-11
3.38465e-11
1.21546e-10
9.84217e-11
1.26769e-10
1.32146e-10
9.18126e-11
1.15535e-10
7.38779e-11
1.12541e-10
1.11531e-10
1.16061e-10
6.8055e-11
3.3476e-11
1.20745e-10
7.89165e-11
8.01722e-11
6.66783e-11
8.08056e-11
7.44795e-11
9.64598e-11
1.16692e-10
9.8736e-11
1.06306e-10
9.11519e-11
3.90129e-11
1.17086e-10
9.60599e-11
9.70122e-11
1.36216e-10
1.47379e-10
1.40929e-10
1.04799e-10
8.27886e-11
5.86683e-11
7.38664e-11
9.76941e-11
8.05923e-11
6.78583e-11
8.88757e-11
6.8837e-11
9.35634e-11
1.07436e-10
8.87242e-11
9.08012e-11
6.51997e-11
8.03187e-11
4.54122e-11
7.98454e-11
9.53506e-11
1.2213e-10
1.3894e-10
1.20853e-10
5.20305e-11
7.27624e-11
9.01605e-11
1.02823e-10
8.6589e-11
5.52152e-11
9.61125e-11
1.33297e-10
1.51557e-10
1.41809e-10
4.4221e-11
1.22778e-10
9.7488e-11
7.73545e-11
1.32081e-10
1.34017e-10
9.83228e-11
4.09394e-11
1.1741e-10
1.21281e-10
1.10102e-10
8.61601e-11
0
4.06711e-12
7.26661e-11
6.78526e-11
8.18265e-11
8.57307e-11
5.99144e-11
8.68707e-11
8.9797e-11
5.34107e-11
1.05863e-10
9.78416e-11
5.49141e-11
8.01561e-11
1.0231e-10
1.18123e-10
7.73704e-11
1.04729e-10
1.06667e-10
7.96892e-11
6.01546e-11
8.05664e-11
1.04505e-10
1.11171e-10
1.18437e-10
4.64784e-11
9.32124e-11
6.25834e-11
2.67829e-11
7.21011e-11
1.14088e-10
1.55955e-10
1.24465e-10
9.66397e-11
9.20809e-11
7.02761e-11
9.31957e-11
1.14906e-10
1.25027e-10
1.04636e-10
7.56406e-11
4.72845e-11
7.58492e-11
7.86476e-11
8.1695e-11
7.95102e-11
6.05135e-11
6.53265e-11
1.04608e-10
1.37405e-10
8.39334e-11
1.11973e-10
8.63301e-11
8.60818e-11
6.26889e-11
9.09701e-11
1.30713e-10
6.18054e-11
9.5257e-11
8.62165e-11
4.93674e-11
1.02862e-10
8.70239e-11
6.37635e-11
7.65237e-11
3.44196e-11
8.03914e-11
5.31423e-11
9.24608e-11
9.49726e-11
3.53554e-11
3.64354e-11
4.23167e-11
9.98574e-11
9.41845e-11
5.44586e-11
2.81603e-11
9.30906e-11
7.59723e-11
1.25756e-10
9.30364e-11
4.2345e-11
3.14736e-11
6.75954e-11
7.78213e-11
6.13209e-11
6.19318e-11
4.62985e-11
6.96724e-11
5.83607e-11
8.47324e-11
4.67277e-11
6.34386e-11
9.30996e-11
2.85524e-11
9.13253e-11
6.63772e-11
8.8394e-11
4.63251e-11
7.7732e-11
8.93596e-11
6.39464e-11
6.29589e-11
8.32357e-11
9.6851e-11
4.8262e-11
4.56408e-11
1.08167e-10
7.47154e-11
6.64615e-11
6.14483e-11
7.87345e-11
5.14051e-11
4.64404e-11
4.8636e-11
7.34914e-11
5.07034e-11
3.65093e-11
7.31107e-11
7.34757e-11
5.49026e-11
3.3221e-11
1.11513e-10
1.42428e-10
5.39048e-11
7.05413e-11
3.54432e-11
7.29246e-11
5.50804e-11
7.90091e-11
6.31941e-11
8.38162e-11
9.74196e-11
8.30225e-11
5.70609e-11
6.48083e-11
9.51566e-11
6.63367e-11
9.08292e-11
3.29138e-11
3.35467e-11
5.44643e-11
3.42989e-11
7.6622e-11
7.5013e-11
6.96601e-11
7.54366e-11
7.65156e-11
8.15148e-11
5.9478e-11
1.08336e-10
1.29636e-10
5.02333e-11
5.05652e-11
1.01935e-10
8.88569e-11
3.99159e-11
1.42679e-10
1.68283e-10
8.3537e-11
5.33503e-11
7.26718e-11
1.07192e-10
1.17153e-10
1.35572e-10
2.13883e-11
5.74722e-11
3.94429e-11
6.64727e-11
5.37472e-11
3.93014e-11
5.45318e-11
4.38607e-11
5.08086e-11
6.82576e-11
8.46554e-11
7.75186e-11
4.73747e-11
9.50305e-11
7.36183e-11
4.63517e-11
6.27198e-11
8.33466e-11
8.03108e-11
1.00531e-10
9.63674e-11
1.03751e-10
4.95348e-11
9.47548e-11
8.90746e-11
7.1603e-11
9.02502e-11
1.10646e-10
1.24936e-10
1.01966e-10
9.09009e-11
9.86091e-11
1.1366e-10
7.71779e-11
5.99279e-11
1.49529e-10
1.45732e-10
1.0349e-10
5.79653e-11
5.74811e-11
9.36205e-11
2.46457e-11
1.86134e-11
2.28612e-11
4.6818e-11
3.90427e-11
7.51836e-11
4.82053e-11
7.76393e-11
7.85419e-11
6.14557e-11
5.95072e-11
7.10423e-11
2.6525e-11
7.70041e-11
5.64165e-11
4.96538e-11
5.83334e-11
5.17378e-11
5.49488e-11
7.14332e-11
6.26638e-11
2.84643e-11
6.10832e-11
7.45172e-11
8.55089e-11
7.32063e-11
6.32917e-11
1.21442e-10
5.65227e-11
9.33519e-11
3.81941e-11
8.85639e-11
5.76348e-11
4.70494e-11
3.76122e-11
3.77258e-11
5.97906e-11
1.12645e-10
1.39792e-10
6.9565e-11
5.13366e-11
5.35694e-11
3.94687e-11
5.88099e-11
6.71065e-11
4.40916e-11
6.73264e-11
5.72918e-11
6.98757e-11
4.37149e-11
7.77389e-11
2.39128e-11
5.59711e-11
1.03928e-10
8.71436e-11
8.16329e-11
4.23197e-11
6.17858e-11
7.35585e-11
7.56389e-11
4.88014e-11
5.27185e-11
1.00051e-10
9.19061e-11
4.24134e-11
8.45106e-11
6.37092e-11
6.74139e-11
1.02143e-10
5.21824e-11
1.33436e-10
9.33224e-11
5.45769e-11
7.76115e-11
9.57227e-11
1.11397e-10
5.96635e-11
1.02643e-10
8.55778e-11
7.45464e-11
9.95453e-11
3.36329e-12
4.52155e-11
6.12739e-11
7.06628e-11
4.91633e-11
8.59732e-11
5.36024e-11
1.84229e-11
5.2038e-11
5.08279e-11
6.42776e-11
5.33103e-11
7.19238e-11
5.3325e-11
7.49388e-11
7.19339e-11
6.57137e-11
5.26129e-11
4.50898e-11
5.48167e-11
3.23198e-11
5.20583e-11
9.83367e-11
6.1038e-11
4.40784e-11
6.35104e-11
6.08745e-11
6.30241e-11
7.78394e-11
7.969e-11
8.71361e-11
7.24683e-11
3.70791e-11
1.00329e-10
4.42373e-11
2.85492e-11
6.90162e-11
8.68333e-11
1.1609e-10
2.26308e-11
4.68257e-11
5.68576e-11
4.40455e-11
2.89659e-11
5.70932e-11
3.58979e-11
4.54514e-11
5.00471e-11
7.15636e-11
3.83304e-11
7.89197e-11
8.58232e-11
3.75476e-11
1.7302e-11
3.9491e-11
8.11026e-11
6.41068e-11
3.03919e-11
5.90193e-11
8.72131e-11
8.00618e-11
4.39895e-11
3.15893e-11
5.17299e-11
7.02719e-11
3.56269e-11
5.76892e-11
3.84988e-11
6.07776e-11
5.7296e-11
8.75094e-11
5.91335e-11
6.53257e-11
8.76701e-11
3.21756e-11
7.44655e-11
8.2784e-11
4.41338e-11
3.7123e-11
1.01841e-10
3.31013e-11
5.66308e-11
2.47342e-12
4.80912e-11
5.41336e-11
5.26071e-11
5.57232e-11
3.56426e-11
4.94733e-11
5.51017e-11
3.94342e-11
4.9449e-11
7.21271e-11
3.42083e-11
5.53185e-11
7.21192e-11
4.62402e-11
4.44297e-11
5.32066e-11
8.12737e-11
6.35785e-11
3.8606e-11
6.89939e-11
7.42165e-11
8.26508e-11
1.02883e-10
6.20263e-11
7.77409e-11
6.26345e-11
4.78784e-11
5.7723e-11
7.60888e-11
8.61654e-11
9.56152e-11
8.23046e-11
1.00483e-10
6.29055e-11
7.79145e-11
1.11557e-10
1.15065e-10
3.30457e-11
8.10847e-11
6.0701e-11
4.19724e-11
4.37318e-11
3.61617e-11
2.91402e-11
2.31892e-11
4.59085e-11
4.28967e-11
4.37373e-11
5.00092e-11
3.32439e-11
5.62051e-11
5.4663e-11
6.07481e-11
4.51502e-11
7.09096e-11
3.85719e-11
5.10077e-11
8.00516e-11
8.70214e-11
4.20894e-11
4.34217e-11
4.88429e-11
4.56923e-11
6.30873e-11
4.68427e-11
6.40597e-11
6.85517e-11
8.55649e-11
2.09668e-11
8.51379e-11
3.68147e-11
9.53527e-11
4.3622e-11
7.21297e-11
7.29012e-11
3.84709e-11
5.24487e-11
7.52238e-11
4.59234e-11
7.9894e-11
2.33035e-11
9.47175e-11
0
2.5257e-11
2.00839e-11
1.60367e-11
4.89575e-11
4.88136e-11
5.32182e-11
3.33695e-11
3.86238e-11
5.61358e-11
3.127e-11
6.18721e-11
5.83893e-11
3.93531e-11
7.22478e-11
5.54302e-11
2.41588e-11
6.81766e-11
6.23015e-11
4.24141e-11
6.13612e-11
4.04232e-11
5.56474e-11
4.43312e-11
4.78045e-11
7.55481e-11
4.76875e-11
5.1344e-11
3.9415e-11
4.61472e-11
6.34981e-11
7.34921e-11
9.50809e-11
7.2292e-11
8.66279e-11
6.08467e-11
7.22064e-11
8.92806e-11
9.27176e-11
5.67036e-11
3.74748e-11
5.34512e-11
4.52823e-11
2.69364e-11
1.57951e-11
3.65995e-11
2.43336e-11
4.17434e-11
5.40186e-11
4.04151e-11
2.00153e-11
1.88506e-11
4.45468e-11
3.38051e-11
4.08728e-11
3.25057e-11
4.01592e-11
4.8008e-11
3.24716e-11
4.04254e-11
5.84844e-11
5.28246e-11
5.36764e-11
4.00926e-11
4.19849e-11
3.5916e-11
3.4727e-11
4.33152e-11
8.41999e-11
7.30897e-11
7.89232e-11
3.75512e-11
4.22258e-11
3.60606e-11
4.79332e-11
4.87531e-11
3.7648e-11
5.92203e-11
5.52443e-11
4.53453e-11
5.94627e-11
8.45373e-11
4.75669e-11
2.09386e-11
3.74956e-11
3.82247e-11
2.08265e-11
5.87774e-11
4.6635e-11
3.76167e-11
4.27498e-11
4.26384e-11
6.27317e-11
5.70671e-11
3.00606e-11
3.08815e-11
4.95508e-11
2.26118e-11
3.70271e-11
4.72431e-11
5.50953e-11
4.11109e-11
6.18516e-11
2.25037e-11
5.54617e-11
4.96355e-11
3.93551e-11
2.62711e-11
2.5454e-11
4.18188e-11
2.44073e-11
5.84828e-11
5.88831e-11
7.95608e-11
8.55796e-11
8.67548e-11
8.93072e-11
5.60994e-11
6.11168e-11
8.30787e-11
4.00323e-11
2.14552e-11
8.25989e-11
1.54591e-11
1.92013e-11
4.9826e-11
3.54314e-11
2.88155e-11
4.13036e-11
1.54111e-11
4.52936e-11
1.65283e-11
4.22373e-11
4.36362e-11
6.55984e-11
6.51333e-11
4.99719e-11
5.1485e-11
6.41744e-11
4.51436e-11
6.13923e-11
5.31373e-11
3.9198e-11
2.14884e-11
5.62047e-11
6.86817e-11
8.28534e-11
6.67962e-11
3.11042e-11
4.42766e-11
3.90353e-11
6.03044e-11
6.23655e-11
6.68699e-11
8.6887e-11
3.56377e-11
5.55071e-11
7.06564e-11
8.78542e-11
7.76392e-11
4.49596e-11
2.99822e-11
6.04167e-11
3.22306e-11
4.13188e-11
3.05652e-11
4.94806e-11
4.86758e-11
3.57529e-11
2.96456e-11
4.76994e-11
3.76302e-11
4.79691e-11
1.7768e-11
4.69707e-11
3.2174e-11
4.27654e-11
3.18968e-11
4.02499e-11
3.43482e-11
4.40178e-11
1.8859e-11
6.36741e-11
7.53076e-11
6.46679e-11
4.53087e-11
4.21522e-11
5.47596e-11
4.9728e-11
3.48857e-11
5.62517e-11
8.12548e-11
3.07714e-11
3.94225e-11
8.1031e-11
7.52861e-11
6.07814e-11
5.19866e-11
5.77639e-11
3.60184e-11
7.40829e-11
7.0079e-11
7.59729e-11
6.3424e-11
1.02274e-10
4.09249e-11
1.22916e-11
4.09811e-11
4.48208e-11
2.51901e-11
4.33432e-11
4.48425e-11
0
3.63361e-11
3.6086e-11
5.14084e-11
2.81041e-11
2.03683e-11
4.16735e-11
5.79027e-11
5.40854e-11
3.63707e-11
6.66267e-11
3.61617e-11
5.22757e-11
5.31811e-11
7.74122e-11
7.32198e-11
5.70067e-11
3.13974e-11
5.97831e-11
8.41415e-11
8.62754e-11
2.67413e-11
6.15913e-11
5.53951e-11
1.54156e-11
4.92374e-11
6.2153e-11
4.65726e-11
7.16071e-11
4.62401e-11
8.4448e-11
8.19501e-11
6.358e-11
9.68965e-11
4.54581e-12
3.77472e-11
3.74555e-11
3.83228e-11
4.50955e-11
2.58279e-11
4.08559e-11
3.18272e-11
0
4.18192e-11
2.58488e-11
3.64816e-11
3.74827e-11
3.51658e-11
4.80853e-11
2.95277e-11
2.04402e-11
6.31336e-11
7.72169e-11
2.73487e-11
5.43574e-11
4.79141e-11
4.06512e-11
6.30488e-11
1.44459e-11
6.29219e-11
7.75911e-11
3.21092e-11
3.03922e-11
2.7634e-11
2.87814e-11
2.48495e-11
2.12904e-11
4.48292e-11
4.14017e-11
6.4269e-11
3.98478e-11
8.85867e-11
5.92697e-11
4.53751e-11
9.20185e-11
3.14677e-11
3.41583e-11
3.52917e-11
1.39125e-11
2.56491e-11
3.60622e-11
4.00393e-11
2.32881e-11
3.61786e-11
4.44715e-11
5.7089e-11
3.79499e-11
2.55364e-11
4.1166e-11
3.27126e-11
4.82238e-11
2.23286e-11
3.94947e-11
5.98732e-11
4.53289e-11
3.8494e-11
4.73808e-11
4.38907e-11
2.74754e-11
3.24412e-11
2.89732e-11
2.45874e-11
4.94593e-11
1.88383e-11
5.9996e-11
3.24485e-11
5.29456e-11
4.82089e-11
2.08859e-11
3.99909e-11
8.3873e-11
6.83973e-11
4.33443e-11
7.35415e-11
2.5615e-11
5.07333e-12
1.06019e-11
3.33181e-11
3.29303e-11
4.65676e-11
3.65867e-11
2.98702e-11
3.10974e-11
2.96055e-11
3.24099e-11
4.33491e-11
2.93817e-11
2.83586e-11
2.27201e-11
3.11235e-11
5.01921e-11
5.04021e-11
4.81259e-11
4.06968e-11
2.72041e-11
3.31108e-11
5.29072e-11
1.81336e-11
4.33498e-11
3.65971e-11
2.26986e-11
4.96961e-11
4.26423e-11
4.63082e-11
4.91094e-11
3.83127e-11
1.71449e-11
3.23533e-11
3.65774e-11
4.39445e-11
6.79595e-11
3.43233e-11
1.05145e-10
8.65164e-11
8.5494e-11
7.08854e-11
2.49275e-11
1.11543e-11
1.21025e-11
4.09802e-11
3.02936e-11
1.90104e-11
2.5779e-11
2.0524e-11
3.27956e-11
2.63381e-11
3.03987e-11
2.35087e-11
3.05215e-11
3.81824e-11
5.11186e-11
1.18027e-11
2.95241e-11
3.8483e-11
1.14463e-11
4.21391e-11
4.72582e-11
4.29873e-11
4.87512e-11
2.24616e-11
3.91479e-11
6.11115e-11
7.67774e-11
9.44902e-11
5.28573e-11
5.73299e-11
2.37934e-11
6.35072e-11
3.76188e-11
6.24945e-11
6.15641e-11
3.43331e-11
4.56681e-11
6.41254e-11
6.32414e-11
7.57108e-11
3.70463e-11
4.09021e-11
2.30648e-11
2.4012e-11
1.98323e-11
2.50042e-11
3.23355e-11
3.01583e-11
0
1.14609e-11
3.37775e-11
3.05786e-11
2.64829e-11
4.59384e-11
3.16794e-11
2.21797e-11
2.93712e-11
3.8656e-11
3.7401e-11
1.51278e-11
2.91731e-11
5.88548e-11
5.25464e-11
3.83373e-11
3.95141e-11
4.45412e-11
4.19351e-11
5.19702e-11
5.22501e-11
3.66871e-11
6.23717e-11
8.80571e-11
6.94936e-11
6.52735e-11
4.57214e-11
6.68278e-11
6.09087e-11
3.98632e-11
7.66168e-11
8.76577e-11
3.9416e-11
6.4225e-11
7.56099e-11
3.17588e-11
1.40486e-11
1.10153e-11
2.45202e-11
1.75607e-11
2.78827e-11
2.26546e-11
2.99868e-11
4.04021e-11
2.43801e-11
3.61396e-11
1.51474e-11
3.20661e-11
2.94164e-11
3.08684e-11
4.77577e-11
3.63188e-11
2.86226e-11
4.20466e-11
5.02747e-11
3.43844e-11
4.23474e-11
5.97279e-11
5.76102e-11
1.88138e-11
3.92243e-11
3.23073e-11
3.53463e-11
3.44282e-11
6.65983e-11
6.51259e-11
6.50315e-11
2.13278e-11
2.14505e-11
3.26949e-11
4.33453e-11
3.28089e-11
4.90495e-11
4.18811e-11
4.52535e-11
7.32663e-11
2.92565e-11
1.10056e-11
3.21299e-11
2.69562e-11
2.14974e-11
2.17192e-11
3.10155e-11
3.9034e-11
2.42264e-11
1.68484e-11
2.35128e-11
2.28421e-11
2.84789e-11
3.95654e-11
1.74035e-11
2.51873e-11
3.22267e-11
3.31901e-11
2.79476e-11
2.43047e-11
4.33628e-11
3.18308e-11
4.07477e-11
2.53498e-11
3.11518e-11
3.48579e-11
4.00821e-11
3.10201e-11
6.90435e-11
5.9782e-11
5.13705e-11
4.00513e-11
6.01491e-11
4.19146e-11
3.22215e-11
6.84298e-11
3.43515e-11
4.25269e-11
5.31335e-11
4.41752e-11
2.04783e-11
2.26767e-11
2.87631e-11
3.01529e-11
3.13721e-11
2.61012e-11
2.67048e-11
3.50859e-11
2.23061e-11
2.92567e-11
2.42686e-11
5.91952e-12
6.12178e-12
3.37442e-11
2.70834e-11
3.16423e-11
1.85221e-11
3.47163e-11
2.72605e-11
3.62205e-11
2.91948e-11
4.26824e-11
5.00932e-11
3.31446e-11
3.19847e-11
4.71854e-11
4.40493e-11
6.10103e-11
6.05796e-11
4.58414e-11
5.04248e-11
2.49281e-11
2.8888e-11
9.60329e-11
2.62943e-11
7.63508e-11
2.82927e-11
7.43749e-11
8.033e-11
5.77781e-11
3.29547e-11
4.42259e-12
1.05504e-11
1.90129e-11
2.0212e-11
2.8586e-11
3.28355e-11
1.30295e-11
1.20829e-11
2.64675e-11
3.71039e-11
1.43036e-11
2.47659e-11
2.74857e-11
2.4804e-11
2.12003e-11
3.59248e-11
1.95033e-11
1.78307e-11
2.3831e-11
3.40041e-11
2.49112e-11
3.9683e-11
3.1488e-11
2.70215e-11
1.55751e-11
4.06126e-11
1.07602e-11
5.93503e-11
6.3471e-11
5.65389e-11
2.94789e-11
4.26492e-11
3.57853e-11
5.81433e-11
3.75738e-11
3.11052e-11
6.45538e-11
1.59753e-11
5.72869e-11
6.84909e-11
2.36116e-11
8.98951e-11
2.53981e-11
2.66524e-11
2.90388e-11
1.92828e-11
1.40374e-11
1.12077e-11
2.43221e-11
3.34798e-11
2.07433e-11
2.32557e-11
1.99231e-11
1.80943e-11
3.74402e-11
4.6233e-11
2.01453e-11
1.68108e-11
4.23543e-11
3.63254e-11
3.47789e-11
2.34049e-11
5.71588e-11
3.05924e-11
5.37473e-11
2.95183e-11
4.25616e-11
2.54873e-11
5.19296e-11
6.72426e-11
6.18905e-11
4.21404e-11
2.41135e-11
5.97984e-11
7.69454e-11
5.21023e-12
3.49857e-11
7.3609e-11
6.2911e-11
8.85323e-11
7.84806e-11
4.54228e-11
8.65265e-11
1.78903e-11
1.37973e-11
1.32006e-11
2.54034e-11
1.67891e-11
2.70229e-11
2.88008e-11
2.11522e-11
2.53533e-11
3.755e-11
3.41354e-11
2.51157e-11
2.66325e-11
2.25649e-11
2.7458e-11
2.99873e-11
3.45251e-11
3.43359e-11
2.88024e-11
1.9611e-11
2.76051e-11
2.69502e-11
2.38231e-11
1.4025e-11
2.19564e-11
6.25989e-11
3.03804e-11
4.60439e-11
4.10136e-11
4.86174e-11
2.02108e-11
5.89438e-11
3.59384e-11
7.35799e-11
7.76516e-11
8.05187e-11
3.75845e-11
1.9517e-11
4.02944e-11
4.18842e-11
8.38489e-11
8.17049e-12
2.10276e-11
2.21114e-11
2.69521e-11
2.40468e-11
1.58362e-11
2.68088e-11
2.12541e-11
1.22572e-11
1.96217e-11
2.34726e-11
2.00579e-11
2.41191e-11
2.27118e-11
2.86554e-11
2.71374e-11
3.95514e-11
4.09278e-11
3.54273e-11
1.91982e-11
1.95941e-11
3.96408e-11
1.24031e-11
1.15886e-11
4.61152e-11
1.69868e-11
2.12406e-11
7.14674e-11
3.83969e-11
1.86192e-11
3.16403e-11
5.20768e-11
4.34093e-11
1.53375e-11
3.89704e-11
6.35506e-11
5.56551e-11
6.45867e-11
3.36794e-11
4.4404e-11
8.19606e-11
7.52697e-12
1.39466e-11
1.86545e-11
8.88999e-12
2.41917e-11
2.53505e-11
1.55026e-11
1.63502e-11
1.97223e-11
3.5041e-11
2.09327e-11
2.10923e-11
2.84519e-11
1.46924e-11
3.40956e-11
2.2436e-11
4.32467e-11
3.95058e-11
4.48029e-11
4.09047e-11
3.08887e-11
1.09993e-11
1.09196e-11
3.54382e-11
2.54834e-11
3.08138e-11
3.59805e-11
9.4497e-12
4.30485e-11
5.38511e-11
4.74584e-11
5.14129e-11
7.02288e-11
1.67893e-11
3.69148e-11
7.06018e-11
4.41718e-11
4.34524e-11
9.45133e-11
3.4091e-11
8.01768e-11
1.5828e-11
2.58866e-11
2.62374e-11
2.11214e-11
2.65778e-11
1.69996e-11
1.84784e-11
1.80874e-11
1.87212e-11
2.19745e-11
2.70477e-11
9.75243e-12
2.26445e-11
1.4e-11
1.77841e-11
2.7034e-11
2.82561e-11
2.16882e-11
3.43017e-11
4.14735e-11
2.79487e-11
4.30477e-11
4.45083e-11
4.2961e-11
5.7025e-12
4.97966e-11
5.3715e-11
3.28222e-11
2.14461e-11
2.10032e-11
5.9594e-11
6.44761e-11
3.15791e-11
2.81286e-11
4.72664e-11
3.0418e-11
4.33065e-11
5.00966e-11
2.7814e-11
7.62968e-11
1.1234e-10
2.2907e-11
2.37471e-11
2.53109e-11
1.36873e-11
2.04725e-11
9.68119e-12
2.26805e-11
2.30654e-11
2.09764e-11
2.21043e-11
2.10095e-11
2.33097e-11
1.75797e-11
2.20637e-11
2.59469e-11
1.36495e-11
9.94105e-12
6.92693e-12
1.86583e-11
2.18207e-11
4.37917e-11
3.09603e-11
1.72271e-11
2.91746e-11
2.2424e-11
2.70051e-11
4.48533e-11
3.93869e-11
6.52042e-11
5.38829e-11
3.04191e-11
4.15365e-11
6.95832e-12
4.37824e-11
2.74011e-11
5.19332e-11
8.70376e-11
9.46082e-11
6.31906e-11
5.67187e-11
2.51808e-11
8.80875e-11
5.93519e-11
3.25965e-11
4.77623e-11
9.69786e-11
8.55484e-11
8.27188e-11
1.08721e-10
5.49026e-11
6.68589e-11
9.81124e-11
9.16329e-11
9.07659e-11
8.60925e-11
5.87517e-11
5.06951e-11
5.28273e-11
2.60993e-10
4.15174e-11
1.32002e-11
3.85419e-11
6.08903e-11
3.56748e-11
3.59737e-11
6.34748e-11
5.67819e-11
3.20088e-11
1.81756e-10
1.99438e-11
4.39707e-11
4.20298e-11
1.40967e-11
2.05874e-10
2.959e-11
4.74e-11
2.32584e-11
4.26607e-11
4.18737e-11
4.9473e-11
2.89769e-11
2.59419e-11
2.3392e-11
1.38214e-10
2.3401e-11
2.58776e-11
3.50299e-11
1.61086e-10
2.12705e-11
1.90993e-11
2.07961e-11
7.81858e-12
1.79059e-11
1.44054e-11
1.53268e-11
2.49628e-11
2.87042e-11
1.43229e-11
1.62377e-11
9.65696e-11
2.66934e-11
1.95737e-11
1.15895e-10
1.42898e-11
1.2349e-11
1.97576e-11
9.67487e-11
1.73508e-11
8.78237e-11
8.3465e-12
1.45006e-11
1.32532e-11
1.5268e-11
9.03863e-12
1.96612e-11
1.25358e-10
1.23414e-10
5.52247e-11
6.41104e-11
8.52711e-11
8.73049e-11
8.60331e-11
6.93705e-11
7.3807e-11
5.01551e-11
3.573e-11
7.45973e-11
9.62031e-11
1.00526e-10
7.41462e-11
6.92326e-11
8.26779e-11
5.045e-11
7.50561e-11
4.57236e-11
6.2326e-11
7.27118e-11
4.07996e-11
6.26509e-11
5.25281e-11
8.74073e-11
2.72531e-11
6.03918e-11
6.71481e-11
5.35394e-11
4.91693e-11
4.7182e-11
4.30906e-11
3.22206e-11
4.98419e-11
3.60536e-11
1.20555e-11
3.54975e-11
4.49977e-11
2.16136e-11
6.87834e-11
4.32956e-11
1.3885e-11
2.2744e-11
1.76344e-11
1.31225e-11
1.83901e-11
1.90046e-11
1.13122e-11
3.32343e-11
4.06989e-11
3.99277e-11
2.14495e-11
3.13406e-11
1.79397e-11
1.10258e-11
1.03882e-11
2.23423e-11
2.12436e-11
2.87743e-11
3.00696e-11
3.62537e-11
1.94038e-11
4.15154e-11
3.07601e-11
2.58594e-11
2.95229e-11
1.8062e-11
9.72524e-12
2.23216e-11
2.46382e-11
8.20207e-12
1.43077e-11
1.92006e-11
4.93609e-11
5.85838e-11
8.11418e-11
5.43448e-11
1.04021e-10
8.80885e-11
1.25415e-10
1.00126e-10
9.69102e-11
3.76817e-11
4.30933e-11
4.03664e-11
3.6213e-11
8.45057e-11
2.65385e-11
1.01578e-10
8.01991e-11
3.34218e-11
2.66543e-11
4.93584e-11
8.42616e-11
2.87829e-11
5.88101e-11
5.34958e-11
6.83527e-11
7.28515e-11
5.87485e-11
1.64861e-11
2.11482e-11
6.06604e-11
4.62067e-11
4.68454e-11
4.51384e-11
2.63377e-11
3.56619e-11
1.71664e-11
1.37526e-11
6.60827e-12
3.02955e-11
3.25584e-11
2.41303e-11
1.89203e-11
1.82363e-11
2.75486e-11
1.18389e-11
4.24877e-11
3.91933e-11
1.24227e-11
3.16444e-11
3.31893e-11
2.90566e-11
1.77937e-11
1.19225e-11
2.04642e-11
2.44876e-11
3.3041e-11
1.73274e-11
2.34913e-11
5.01747e-12
2.47773e-11
1.21033e-11
1.40602e-11
2.86812e-11
2.74471e-11
1.72049e-11
1.89693e-11
1.8285e-11
2.59422e-11
1.19177e-11
1.7863e-11
1.51519e-11
2.59673e-11
1.56762e-11
4.97861e-12
1.63556e-10
9.74259e-11
2.44202e-11
4.10622e-11
8.41528e-11
3.2955e-11
3.38402e-11
9.14585e-11
5.77772e-11
7.38169e-11
8.11867e-11
7.41984e-11
2.54267e-11
3.66545e-11
4.85556e-11
8.04342e-11
6.31042e-11
5.28545e-11
8.356e-11
6.39238e-11
3.39121e-11
2.81291e-11
7.7309e-11
4.31143e-11
6.37178e-11
7.15964e-11
2.34227e-11
5.29405e-11
3.08209e-11
2.32553e-11
6.12842e-11
3.28931e-11
4.02602e-11
1.84521e-11
2.41392e-11
3.94486e-11
4.09024e-11
5.15168e-11
6.06812e-11
3.89744e-11
4.97059e-11
3.61513e-11
1.14776e-11
1.79841e-11
3.56227e-11
3.74549e-11
3.88568e-11
2.44935e-11
3.59942e-11
2.90454e-11
3.05694e-11
2.08568e-11
2.79823e-11
3.09761e-11
3.15061e-11
2.84799e-11
1.44827e-11
1.84714e-11
2.52058e-11
2.94053e-11
3.02614e-11
1.89717e-11
1.08503e-11
1.06508e-11
2.14261e-11
2.60022e-11
2.90925e-11
6.49657e-12
1.967e-11
2.65392e-11
1.47183e-11
1.99233e-11
1.39528e-11
2.55899e-11
1.08023e-10
4.94669e-11
1.23409e-10
1.14129e-10
3.49394e-11
5.00353e-11
4.8699e-11
8.56993e-11
7.90292e-11
4.57307e-11
3.58172e-11
4.4523e-11
4.11807e-11
8.14035e-11
6.56591e-11
4.84586e-11
7.40836e-11
7.70794e-11
2.2264e-11
5.27772e-11
1.85965e-11
3.05123e-11
4.14068e-11
5.16842e-11
7.06695e-11
4.83879e-11
5.12959e-11
5.41654e-11
4.84184e-11
2.32082e-11
3.63507e-11
3.91615e-11
2.93405e-11
8.38267e-12
2.22369e-11
3.70806e-11
2.92102e-11
3.97041e-11
3.82493e-11
3.68045e-11
3.08405e-11
1.71245e-11
2.84002e-11
4.16939e-11
3.71629e-11
3.85762e-11
1.97937e-11
1.39247e-11
3.87337e-11
2.1675e-11
1.695e-11
1.62242e-11
2.20707e-11
2.5752e-11
3.19236e-11
3.06586e-11
1.85976e-11
2.55269e-11
1.33066e-11
1.64049e-11
2.47601e-11
6.28249e-12
1.84605e-11
1.03036e-11
2.47143e-11
2.19452e-11
6.43397e-12
7.18041e-12
1.56546e-11
2.97291e-11
1.0789e-11
1.9257e-11
1.32094e-11
1.76461e-11
6.03122e-11
8.81325e-11
3.44094e-11
6.83147e-11
9.71492e-11
7.88144e-11
4.58326e-11
6.11847e-11
7.22491e-11
6.60384e-11
6.01562e-11
1.0313e-10
7.07863e-11
6.86903e-11
8.52596e-11
9.94793e-11
4.27347e-11
6.16481e-11
7.14811e-11
8.45962e-11
5.81554e-11
6.50635e-11
2.27863e-11
5.24786e-11
2.93346e-11
2.84231e-11
5.1734e-11
4.27764e-11
2.70607e-11
3.93595e-11
6.11895e-11
6.12985e-11
3.1771e-11
3.0577e-11
6.58627e-11
4.02386e-11
2.82326e-11
4.18108e-11
5.40689e-11
3.88377e-11
4.12143e-11
3.63763e-11
4.61424e-12
2.98857e-11
2.50979e-11
1.9741e-11
4.61443e-11
2.58628e-11
3.01507e-11
1.70887e-11
1.62707e-11
0
4.19268e-11
4.28051e-11
2.73197e-11
1.8761e-11
2.19526e-11
3.58675e-12
2.32143e-11
2.22256e-11
1.84605e-11
1.46598e-11
2.41823e-11
2.65243e-11
1.26728e-11
1.71714e-11
1.67624e-11
1.57395e-11
1.86436e-11
2.05223e-11
2.39414e-11
1.34551e-11
1.57183e-11
2.42133e-11
4.46996e-11
9.2381e-11
6.38693e-11
8.73652e-11
7.35773e-11
8.61147e-11
8.06734e-11
1.23559e-10
6.23052e-11
9.29011e-11
4.14463e-11
4.92691e-11
6.78613e-11
6.14727e-11
1.54951e-11
2.53492e-11
4.25347e-11
7.91439e-11
9.01986e-11
8.08696e-11
7.53993e-11
6.33232e-11
2.06006e-11
2.04031e-11
6.08164e-11
6.99281e-11
6.00222e-11
2.01359e-11
4.49785e-11
3.26646e-11
2.34053e-11
4.8661e-11
1.25405e-11
3.49598e-11
5.79706e-12
1.886e-11
4.45965e-11
5.26955e-11
5.36771e-11
4.62698e-11
4.17691e-11
3.42863e-11
4.41061e-11
1.04771e-11
3.8524e-11
2.6295e-11
9.81017e-12