/*--------------------------------*- C++ -*----------------------------------*\
| =========                 |                                                 |
| \\      /  F ield         | OpenFOAM: The Open Source CFD Toolbox           |
|  \\    /   O peration     | Version:  2312                                  |
|   \\  /    A nd           | Website:  www.openfoam.com                      |
|    \\/     M anipulation  |                                                 |
\*---------------------------------------------------------------------------*/
FoamFile
{
    version     2.0;
    format      ascii;
    arch        "LSB;label=32;scalar=64";
    class       volScalarField;
    location    "0";
    object      turbulenceProperties:k;
}
// * * * * * * * * * * * * * * * * * * * * * * * * * * * * * * * * * * * * * //

dimensions      [0 2 -2 0 0 0 0];

internalField   nonuniform List<scalar> 
11040
(
0.657557
0.641819
0.637969
0.630545
0.620318
0.60971
0.600143
0.592175
0.585848
0.580967
0.577344
0.574737
0.572907
0.571641
0.570727
0.569984
0.569268
0.568434
0.567392
0.566034
0.564332
0.561825
0.55829
0.554338
0.55029
0.546138
0.541923
0.537661
0.533381
0.5291
0.524839
0.520614
0.516434
0.512324
0.508303
0.504363
0.500504
0.496773
0.493155
0.489666
0.48628
2.68404e-17
1.01224e-16
5.29071e-17
1.32026e-17
1.25659e-17
7.41548e-17
7.32449e-17
3.91542e-17
6.85829e-17
0
9.45923e-17
1.51866e-17
2.01481e-17
1.5021e-16
7.39585e-17
6.73532e-17
1.25451e-16
5.8501e-17
5.45519e-17
5.09953e-17
9.64731e-17
2.427e-17
1.92095e-17
8.59892e-18
8.68842e-18
1.51893e-18
2.56014e-17
5.11498e-17
5.03262e-17
1.89831e-17
4.49543e-17
5.22102e-17
5.21705e-17
5.04732e-17
5.31991e-17
1.68746e-17
5.0599e-17
5.53447e-17
5.92063e-17
8.35992e-18
4.98181e-17
2.08914e-17
2.01521e-17
6.47693e-17
7.62509e-17
9.96276e-18
3.97672e-17
6.04582e-17
7.06136e-20
8.49661e-17
9.93282e-17
7.88883e-17
6.86698e-17
6.54732e-17
6.14486e-17
9.06118e-19
5.66768e-17
2.8555e-17
1.19251e-17
4.68836e-17
8.54689e-17
5.49154e-18
7.89652e-17
8.05813e-17
7.05401e-18
1.98923e-17
7.9015e-17
4.80211e-17
4.19553e-17
8.08302e-17
1.23891e-18
4.35028e-17
1.3965e-17
3.68634e-17
1.24781e-18
4.97756e-17
4.37021e-17
2.77299e-17
4.22437e-17
4.46187e-17
8.16362e-17
4.99094e-17
6.27979e-17
6.05974e-17
6.2558e-17
5.43083e-18
2.65435e-19
2.8282e-17
8.33091e-17
3.77483e-17
2.38042e-17
6.81484e-17
7.43295e-17
6.47067e-17
2.10125e-17
5.44635e-17
4.69833e-17
1.10426e-17
4.41884e-17
3.49662e-18
3.92819e-17
6.91426e-17
6.5557e-17
6.67415e-17
6.46895e-17
1.18715e-17
6.71178e-17
1.3162e-16
1.28433e-17
6.66606e-17
6.5334e-17
3.3873e-17
3.33471e-17
3.74652e-17
1.15936e-17
3.41275e-17
3.93356e-17
3.41077e-17
4.10754e-17
2.26044e-17
1.26872e-17
1.27912e-17
3.21828e-17
4.54961e-17
5.71256e-17
6.19642e-17
3.00799e-17
2.61675e-17
6.5602e-17
3.17225e-17
2.03364e-17
5.36128e-17
3.22852e-19
1.53485e-19
4.63925e-17
2.68673e-18
1.01502e-17
3.99391e-17
3.81586e-17
3.63588e-17
3.24865e-17
4.66027e-19
1.94789e-18
9.26641e-18
1.70114e-17
1.18373e-17
1.05507e-17
1.06139e-17
5.26721e-17
5.28514e-17
2.11796e-17
2.86271e-17
2.61369e-17
4.76198e-18
9.69715e-18
9.40564e-18
2.87422e-17
1.86928e-17
2.641e-17
0
4.04392e-17
1.32438e-17
3.00939e-17
1.67864e-19
2.127e-17
3.82299e-17
4.36483e-17
4.77762e-17
2.26392e-17
4.4475e-17
5.11973e-17
4.41264e-17
3.11012e-17
4.42777e-17
8.02328e-17
7.24888e-17
6.50124e-18
3.33027e-17
1.22272e-17
3.14001e-17
3.2237e-17
9.44713e-18
4.29733e-18
4.66702e-17
7.74192e-18
4.51442e-17
8.06322e-18
6.13336e-18
4.46312e-17
7.777e-18
4.65606e-17
4.52522e-17
2.2771e-17
1.08832e-17
7.68662e-18
2.10515e-17
2.13981e-17
4.65045e-17
3.02581e-17
2.35771e-17
2.43634e-17
3.83806e-17
2.2925e-17
2.3183e-17
1.55916e-17
3.22959e-18
5.3645e-17
3.4439e-17
3.4305e-17
7.31528e-18
3.92894e-17
3.6741e-17
1.40951e-17
1.19143e-17
1.27528e-17
1.09307e-17
5.98707e-17
8.74926e-19
2.72051e-17
2.61273e-17
4.88618e-17
2.26355e-17
7.49312e-18
6.99026e-18
3.29574e-18
3.37706e-18
8.66222e-18
1.0072e-17
1.0154e-17
7.18326e-17
3.85816e-17
3.66117e-17
3.7559e-17
6.39519e-18
3.63046e-17
1.88815e-17
1.80725e-17
1.64359e-17
2.90538e-17
2.2571e-17
1.98307e-17
1.72492e-17
3.57654e-17
2.21314e-17
2.69499e-17
3.34248e-18
4.8086e-18
3.1984e-17
3.16703e-17
2.64839e-17
2.12014e-17
1.78792e-17
2.00894e-17
1.72607e-18
2.72849e-17
2.4299e-17
2.78003e-17
9.24697e-18
1.58136e-17
2.24606e-17
2.30262e-17
3.92646e-17
1.78148e-17
1.0962e-17
1.56259e-17
1.33775e-17
2.21461e-18
2.91443e-17
8.22171e-18
3.1243e-17
9.26148e-18
7.72339e-18
2.31526e-17
3.42209e-17
1.63275e-17
1.81248e-17
1.54792e-17
2.7115e-17
1.71031e-17
9.25572e-18
7.26255e-18
7.26015e-18
1.45853e-17
2.84335e-17
1.58143e-17
1.43834e-21
1.82819e-18
7.96046e-21
4.54658e-18
2.55382e-17
1.70142e-17
1.608e-17
0
5.45747e-17
2.71433e-17
4.14034e-17
7.99623e-18
6.0713e-19
6.05342e-19
3.47101e-17
3.00077e-17
2.43407e-17
1.80451e-17
7.53852e-18
2.74743e-17
4.73177e-18
2.42796e-17
2.21101e-17
5.35283e-18
1.04234e-17
1.27723e-18
2.60439e-17
2.63876e-17
1.13199e-17
2.68022e-17
2.38432e-17
1.92494e-17
2.14721e-17
1.26978e-17
1.27981e-17
1.30933e-17
1.25735e-17
1.32999e-17
1.20265e-17
3.96599e-19
1.12077e-17
1.11322e-17
1.49746e-18
1.46633e-17
2.80915e-18
2.3026e-17
1.23262e-17
2.08204e-17
3.70969e-17
1.97308e-17
1.15885e-17
1.97316e-17
9.76369e-19
1.73391e-17
1.65323e-17
1.98375e-17
3.33215e-17
5.44801e-17
6.82275e-18
2.1923e-17
7.85769e-18
1.98739e-17
2.02241e-17
4.22416e-18
1.97966e-17
1.82821e-17
2.02303e-17
1.92142e-17
1.5673e-17
1.73744e-17
8.53414e-18
2.24668e-17
6.1652e-18
9.9912e-18
2.05725e-17
1.18895e-17
9.61987e-18
2.2765e-17
6.07541e-19
1.70661e-17
2.04977e-17
3.43314e-18
1.14046e-17
2.79265e-17
1.06238e-17
1.86796e-17
1.83835e-17
2.29845e-17
8.9615e-18
1.61847e-17
9.26918e-18
1.47431e-17
1.24131e-17
1.54585e-17
4.70327e-18
1.21067e-17
2.14164e-17
7.79011e-18
4.07468e-18
1.82589e-18
8.76961e-18
1.58154e-18
2.02972e-17
1.75934e-17
8.61817e-18
4.51801e-18
1.07134e-17
5.5122e-18
1.75086e-17
4.83943e-18
2.22323e-17
1.86797e-17
1.14695e-17
2.78998e-18
1.23052e-18
6.98134e-18
1.14364e-17
3.9586e-18
1.65068e-17
1.82854e-17
1.46453e-17
1.42029e-17
2.90019e-18
1.65983e-17
2.9985e-18
1.11285e-17
8.12318e-18
1.3395e-17
5.80293e-18
1.78579e-17
7.44798e-18
6.62498e-18
7.41919e-18
1.61673e-17
1.62453e-17
2.23447e-17
4.46005e-18
2.03868e-17
1.74422e-17
9.82732e-18
1.03929e-17
4.02171e-18
3.5235e-18
8.35013e-18
8.20999e-18
5.33646e-18
1.30112e-17
8.9767e-18
2.23224e-17
1.61243e-17
1.96283e-17
8.38138e-18
1.35876e-17
2.48172e-17
7.2391e-18
2.29302e-18
1.24815e-17
1.27978e-17
6.80656e-18
9.59164e-18
1.60964e-17
2.59342e-17
9.36413e-18
1.29605e-17
1.68016e-17
1.85167e-17
1.92474e-17
8.74725e-18
2.83846e-18
2.42091e-18
1.21149e-17
1.18916e-17
8.49775e-18
2.20872e-17
1.31574e-17
9.88245e-18
1.33898e-17
2.44878e-17
1.72112e-17
7.59284e-18
1.33287e-17
1.31663e-17
1.05498e-17
1.10469e-17
8.48306e-18
2.88638e-17
8.90206e-19
2.70012e-17
1.22108e-17
1.14434e-18
5.02882e-18
1.39596e-17
2.11565e-18
9.23773e-18
1.48768e-17
3.85453e-18
1.4838e-17
2.29234e-17
2.63137e-18
1.19447e-17
1.28969e-17
1.03475e-17
2.01681e-17
1.84465e-17
9.57364e-18
2.8098e-18
1.59239e-17
1.39998e-17
1.02888e-17
5.98005e-18
5.75547e-18
1.23223e-17
5.62377e-18
1.63128e-17
9.72392e-18
3.92801e-18
1.59577e-17
1.25766e-17
9.55915e-18
3.6007e-18
7.12051e-18
3.89141e-18
1.02845e-17
2.28464e-18
1.05472e-17
1.70944e-17
1.66129e-17
6.89628e-18
9.67203e-18
9.26639e-18
7.20766e-18
7.90138e-18
7.34659e-18
9.53937e-18
4.10614e-18
8.81637e-18
8.91987e-18
7.48935e-18
2.60731e-18
8.18179e-18
1.06982e-17
1.737e-17
6.40275e-18
2.13414e-18
5.23071e-18
9.04177e-18
3.40867e-18
1.52403e-18
6.78187e-19
1.31922e-17
9.36751e-18
9.34768e-18
3.0793e-18
1.84875e-18
6.43815e-18
1.16191e-18
1.4984e-17
9.82487e-18
1.62993e-17
1.77114e-17
8.54968e-18
1.35386e-17
5.53572e-18
1.28459e-17
1.26163e-17
1.3662e-17
4.69749e-18
1.13661e-18
1.47871e-17
6.31656e-18
6.51917e-18
4.50935e-18
6.62259e-18
5.62625e-18
9.43708e-18
1.38112e-17
9.88772e-18
1.14619e-17
8.42708e-18
1.5437e-18
1.39044e-17
9.359e-18
9.54548e-18
1.88191e-17
2.203e-17
2.0144e-17
1.11393e-17
6.95162e-18
3.49102e-18
5.534e-18
9.68014e-18
6.58767e-18
4.67036e-18
8.01145e-18
4.80606e-18
8.87886e-18
1.1707e-17
7.98417e-18
8.36235e-18
4.31158e-18
6.54303e-18
2.09166e-18
6.46614e-18
9.22129e-18
1.51283e-17
1.95793e-17
1.48137e-17
2.74575e-18
5.36981e-18
8.24475e-18
1.07233e-17
7.60451e-18
3.09217e-18
9.36925e-18
1.80213e-17
2.32968e-17
2.03965e-17
1.98337e-18
1.52892e-17
9.63934e-18
6.06898e-18
1.76941e-17
1.82165e-17
9.80514e-18
1.69992e-18
1.39816e-17
1.49186e-17
1.22953e-17
7.52936e-18
0
1.67771e-20
5.35562e-18
4.66958e-18
6.79099e-18
7.45449e-18
3.64089e-18
7.65405e-18
8.17841e-18
2.89336e-18
1.13667e-17
9.70939e-18
3.05853e-18
6.51656e-18
1.06164e-17
1.41519e-17
6.07148e-18
1.11245e-17
1.15399e-17
6.44086e-18
3.67015e-18
6.58344e-18
1.10769e-17
1.25352e-17
1.42272e-17
2.19103e-18
8.81236e-18
3.97249e-18
7.27544e-19
5.27265e-18
1.32016e-17
2.46687e-17
1.57123e-17
9.47231e-18
8.59972e-18
5.00911e-18
8.8092e-18
1.33916e-17
1.58544e-17
1.11046e-17
5.80304e-18
2.26768e-18
5.83508e-18
6.27359e-18
6.76918e-18
6.41196e-18
3.71406e-18
4.32837e-18
1.10988e-17
1.91493e-17
7.14521e-18
1.27166e-17
7.55909e-18
7.51566e-18
3.9859e-18
8.3935e-18
1.73295e-17
3.87434e-18
9.20321e-18
7.53921e-18
2.47187e-18
1.07314e-17
7.68108e-18
4.12372e-18
5.93932e-18
1.20159e-18
6.55488e-18
2.86435e-18
8.67083e-18
9.14833e-18
1.26782e-18
1.34646e-18
1.81623e-18
1.01136e-17
8.99713e-18
3.008e-18
8.04301e-19
8.78935e-18
5.85404e-18
1.60398e-17
8.77912e-18
1.81865e-18
1.00471e-18
4.63425e-18
6.14246e-18
3.81383e-18
3.89021e-18
2.1741e-18
4.92341e-18
3.45451e-18
7.28189e-18
2.21459e-18
4.08181e-18
8.79105e-18
8.26859e-19
8.45917e-18
4.46872e-18
7.92484e-18
2.1766e-18
6.12836e-18
8.09893e-18
4.14741e-18
4.02031e-18
7.02691e-18
9.51378e-18
2.36241e-18
2.11277e-18
1.18668e-17
5.66194e-18
4.48008e-18
3.8297e-18
6.28747e-18
2.68014e-18
2.18744e-18
2.39917e-18
5.47795e-18
2.60747e-18
1.35192e-18
5.42135e-18
5.47561e-18
3.05725e-18
1.11936e-18
1.26124e-17
2.05747e-17
2.94714e-18
5.04699e-18
1.27413e-18
5.39379e-18
3.07708e-18
6.3314e-18
4.0504e-18
7.12527e-18
9.62583e-18
6.99096e-18
3.30235e-18
4.25997e-18
9.18382e-18
4.46327e-18
8.3675e-18
1.09875e-18
1.14142e-18
3.00864e-18
1.19318e-18
5.95459e-18
5.70714e-18
4.92168e-18
5.77177e-18
5.93807e-18
6.73935e-18
3.58804e-18
1.1904e-17
1.7045e-17
2.55934e-18
2.59328e-18
1.05388e-17
8.00806e-18
1.61599e-18
2.06475e-17
2.87226e-17
7.07787e-18
2.88682e-18
5.35645e-18
1.16538e-17
1.39204e-17
1.86416e-17
4.63977e-19
3.35012e-18
1.57792e-18
4.48158e-18
2.92993e-18
1.56661e-18
3.01609e-18
1.95117e-18
2.61831e-18
4.7255e-18
7.26866e-18
6.09476e-18
2.27635e-18
9.1595e-18
5.49688e-18
2.17909e-18
3.98983e-18
7.04564e-18
6.54173e-18
1.02505e-17
9.419e-18
1.09176e-17
2.48867e-18
9.10642e-18
8.04735e-18
5.20006e-18
8.26117e-18
1.2417e-17
1.58314e-17
1.05453e-17
8.38073e-18
9.86231e-18
1.31028e-17
6.04132e-18
3.64253e-18
2.26775e-17
2.15405e-17
1.08628e-17
3.40785e-18
3.35116e-18
8.88969e-18
6.16065e-19
3.51395e-19
5.3008e-19
2.22316e-18
1.54606e-18
5.73312e-18
2.35687e-18
6.11376e-18
6.25674e-18
3.83062e-18
3.59156e-18
5.11893e-18
7.136e-19
6.01414e-18
3.22818e-18
2.50063e-18
3.45128e-18
2.71494e-18
3.06239e-18
5.17542e-18
3.98272e-18
8.21761e-19
3.78433e-18
5.63194e-18
7.41596e-18
5.43554e-18
4.06292e-18
1.49584e-17
3.24034e-18
8.83877e-18
1.47958e-18
7.95533e-18
3.36911e-18
2.24519e-18
1.43484e-18
1.44352e-18
3.62586e-18
1.28697e-17
1.98202e-17
4.90825e-18
2.673e-18
2.91057e-18
1.57998e-18
3.50789e-18
4.56745e-18
1.97178e-18
4.59744e-18
3.32913e-18
4.95219e-18
1.93822e-18
6.12946e-18
5.79972e-19
3.17741e-18
1.09549e-17
7.70222e-18
6.75889e-18
1.81648e-18
3.87189e-18
5.48796e-18
5.80277e-18
2.41551e-18
2.81884e-18
1.01529e-17
8.56711e-18
1.82453e-18
7.24383e-18
4.1167e-18
4.60939e-18
1.05819e-17
2.76181e-18
1.80588e-17
8.83318e-18
3.02108e-18
6.10938e-18
9.29342e-18
1.25861e-17
3.61047e-18
1.06856e-17
7.42793e-18
5.63636e-18
1.00505e-17
1.14729e-20
2.07357e-18
3.80799e-18
5.06438e-18
2.45147e-18
7.49673e-18
2.91416e-18
3.44241e-19
2.74654e-18
2.62029e-18
4.19049e-18
2.88248e-18
5.24675e-18
2.88407e-18
5.69585e-18
5.24822e-18
4.37983e-18
2.80757e-18
2.06206e-18
3.0477e-18
1.05945e-18
2.74869e-18
9.8079e-18
3.77872e-18
1.9706e-18
4.09105e-18
3.75851e-18
4.02865e-18
6.14531e-18
6.44099e-18
7.7009e-18
5.32649e-18
1.39446e-18
1.02093e-17
1.98482e-18
8.26669e-19
4.83111e-18
7.64747e-18
1.3669e-17
5.1945e-19
2.22389e-18
3.27885e-18
1.96766e-18
8.50979e-19
3.30608e-18
1.30702e-18
2.09526e-18
2.5404e-18
5.19434e-18
1.49016e-18
6.31707e-18
7.47058e-18
1.42992e-18
3.03627e-19
1.58176e-18
6.67136e-18
4.16824e-18
9.36827e-19
3.53292e-18
7.71451e-18
6.50124e-18
1.96265e-18
1.01211e-18
2.71412e-18
5.00851e-18
1.28737e-18
3.37547e-18
1.50328e-18
3.74656e-18
3.32961e-18
7.76703e-18
3.5466e-18
4.32826e-18
7.79557e-18
1.05002e-18
5.62412e-18
6.95085e-18
1.97555e-18
1.39776e-18
1.05194e-17
1.11131e-18
3.25275e-18
6.20496e-21
2.34572e-18
2.9722e-18
2.80695e-18
3.14933e-18
1.2885e-18
2.48249e-18
3.07947e-18
1.57722e-18
2.48005e-18
5.27645e-18
1.18688e-18
3.10375e-18
5.2753e-18
2.16862e-18
2.00213e-18
2.87128e-18
6.69954e-18
4.09983e-18
1.51166e-18
4.828e-18
5.58657e-18
6.9285e-18
1.07357e-17
3.90209e-18
6.12978e-18
3.97899e-18
2.32501e-18
3.37942e-18
5.87201e-18
7.53027e-18
9.27254e-18
6.87058e-18
1.02408e-17
4.01349e-18
6.15718e-18
1.26224e-17
1.34285e-17
1.10758e-18
6.66842e-18
3.73711e-18
1.78678e-18
1.93973e-18
1.32631e-18
8.61249e-19
5.45404e-19
2.13763e-18
1.86635e-18
1.94021e-18
2.53656e-18
1.1209e-18
3.20403e-18
3.03063e-18
3.74292e-18
2.06759e-18
5.09983e-18
1.50899e-18
2.63887e-18
6.49957e-18
7.68064e-18
1.79677e-18
1.91232e-18
2.41962e-18
2.11754e-18
4.03673e-18
2.22551e-18
4.16213e-18
4.7663e-18
7.42568e-18
4.45871e-19
7.35175e-18
1.37464e-18
9.22171e-18
1.93e-18
5.27684e-18
5.39031e-18
1.5011e-18
2.79007e-18
5.73925e-18
2.13901e-18
6.47401e-18
5.5079e-19
9.09925e-18
0
6.47007e-19
4.09112e-19
2.6084e-19
2.43099e-18
2.41672e-18
2.87253e-18
1.12939e-18
1.51305e-18
3.19613e-18
9.91744e-19
3.88271e-18
3.45789e-18
1.57073e-18
5.29413e-18
3.11629e-18
5.91964e-19
4.71428e-18
3.93679e-18
1.82459e-18
3.81885e-18
1.65732e-18
3.14076e-18
1.99326e-18
2.31783e-18
5.78884e-18
2.3065e-18
2.67377e-18
1.57568e-18
2.15991e-18
4.08947e-18
5.47806e-18
9.1692e-18
5.30061e-18
7.61134e-18
3.75508e-18
5.28806e-18
8.08461e-18
8.71906e-18
3.26111e-18
1.42437e-18
2.89775e-18
2.07971e-18
7.35908e-19
2.53039e-19
1.35861e-18
6.00564e-19
1.76734e-18
2.95959e-18
1.65665e-18
4.06321e-19
3.60408e-19
2.0127e-18
1.15907e-18
1.69439e-18
1.07168e-18
1.63574e-18
2.33761e-18
1.06943e-18
1.6575e-18
3.46917e-18
2.8302e-18
2.92221e-18
1.63033e-18
1.78785e-18
1.30834e-18
1.22315e-18
1.90294e-18
7.19065e-18
5.41824e-18
6.31763e-18
1.43019e-18
1.80842e-18
1.3189e-18
2.33033e-18
2.41074e-18
1.43757e-18
3.55702e-18
3.09543e-18
2.0855e-18
3.5862e-18
7.24839e-18
2.29485e-18
4.44671e-19
1.42595e-18
1.48195e-18
4.39923e-19
3.50402e-18
2.20581e-18
1.43518e-18
1.85359e-18
1.84394e-18
3.99135e-18
3.30307e-18
9.16515e-19
9.67259e-19
2.49027e-18
5.18578e-19
1.39054e-18
2.26371e-18
3.07875e-18
1.71419e-18
3.88013e-18
5.13635e-19
3.11983e-18
2.49879e-18
1.57089e-18
7.00005e-19
6.57137e-19
1.77374e-18
6.04203e-19
3.46898e-18
3.51663e-18
6.42012e-18
7.42824e-18
7.63365e-18
8.08943e-18
3.19199e-18
3.78849e-18
7.00043e-18
1.62542e-18
4.66884e-19
6.91981e-18
2.4239e-19
3.73945e-19
2.51801e-18
1.27328e-18
8.42167e-19
1.7303e-18
2.40886e-19
2.08075e-18
2.77077e-19
1.80941e-18
1.93125e-18
4.36448e-18
4.3028e-18
2.53278e-18
2.68848e-18
4.17704e-18
2.06699e-18
3.82273e-18
2.8638e-18
1.55838e-18
4.6833e-19
3.20399e-18
4.7844e-18
6.96251e-18
4.52532e-18
9.81259e-19
1.98835e-18
1.54547e-18
3.68844e-18
3.94489e-18
4.53531e-18
7.65693e-18
1.28814e-18
3.12494e-18
5.06347e-18
7.82836e-18
6.11374e-18
2.05017e-18
9.1174e-19
3.70219e-18
1.05361e-18
1.73157e-18
9.47547e-19
2.48322e-18
2.4031e-18
1.29648e-18
8.91385e-19
2.30766e-18
1.43621e-18
2.33383e-18
3.20201e-19
2.23768e-18
1.04992e-18
1.85494e-18
1.0319e-18
1.64314e-18
1.19661e-18
1.96518e-18
3.60732e-19
4.11217e-18
5.75206e-18
4.24153e-18
2.08213e-18
1.80213e-18
3.04134e-18
2.50811e-18
1.23435e-18
3.20935e-18
6.69643e-18
9.60373e-19
1.57628e-18
6.6596e-18
5.74877e-18
3.74703e-18
2.74112e-18
3.38421e-18
1.31582e-18
5.56648e-18
4.98105e-18
5.85413e-18
4.07993e-18
1.06091e-17
1.69872e-18
1.53236e-19
1.70338e-18
2.03753e-18
6.43581e-19
1.9054e-18
2.0395e-18
0
1.33912e-18
1.32076e-18
2.68048e-18
8.01093e-19
4.20779e-19
1.76143e-18
3.4005e-18
2.96691e-18
1.34168e-18
4.50238e-18
1.32631e-18
2.77169e-18
2.86853e-18
6.07805e-18
5.43754e-18
3.29607e-18
9.99844e-19
3.62495e-18
7.18068e-18
7.54952e-18
7.2529e-19
3.84754e-18
3.11235e-18
2.41027e-19
2.45887e-18
3.91804e-18
2.19992e-18
5.20064e-18
2.16861e-18
7.23309e-18
6.81153e-18
4.10002e-18
9.52272e-18
2.09589e-20
1.44516e-18
1.4229e-18
1.48957e-18
2.06258e-18
6.76585e-19
1.69299e-18
1.0274e-18
0
1.77377e-18
6.77683e-19
1.34987e-18
1.42497e-18
1.25425e-18
2.34515e-18
8.84312e-19
4.23757e-19
4.04265e-18
6.04742e-18
7.58611e-19
2.99683e-18
2.32848e-18
1.67607e-18
4.0318e-18
2.11657e-19
4.01558e-18
6.10617e-18
1.04569e-18
9.36847e-19
7.74522e-19
8.40175e-19
6.26297e-19
4.5974e-19
2.03829e-18
1.73853e-18
4.18937e-18
1.61047e-18
7.95944e-18
3.56296e-18
2.08824e-18
8.58806e-18
1.00433e-18
1.18342e-18
1.26325e-18
1.96315e-19
6.67251e-19
1.31902e-18
1.62599e-18
5.50063e-19
1.32754e-18
2.0059e-18
3.3056e-18
1.46072e-18
6.614e-19
1.71879e-18
1.08536e-18
2.35868e-18
5.05671e-19
1.58206e-18
3.63588e-18
2.08399e-18
1.5029e-18
2.27693e-18
1.95385e-18
7.65655e-19
1.06743e-18
8.5141e-19
6.13155e-19
2.48109e-18
3.59937e-19
3.65081e-18
1.06791e-18
2.84318e-18
2.35722e-18
4.42439e-19
1.62206e-18
7.13493e-18
4.74486e-18
1.9055e-18
5.48542e-18
6.6548e-19
2.61054e-20
1.14002e-19
1.12591e-18
1.09986e-18
2.19944e-18
1.35767e-18
9.04942e-19
9.8083e-19
8.88979e-19
1.06537e-18
1.90592e-18
8.75587e-19
8.15668e-19
5.23558e-19
9.82478e-19
2.55514e-18
2.57657e-18
2.3491e-18
1.67983e-18
7.5061e-19
1.11195e-18
2.83906e-18
3.33513e-19
1.90599e-18
1.35843e-18
5.22568e-19
2.5049e-18
1.84427e-18
2.175e-18
2.4461e-18
1.48878e-18
2.98136e-19
1.06165e-18
1.35697e-18
1.95864e-18
4.6843e-18
1.19488e-18
1.1213e-17
7.59175e-18
7.41339e-18
5.09634e-18
6.30235e-19
1.26191e-19
1.48559e-19
1.7033e-18
9.30781e-19
3.66547e-19
6.74025e-19
4.27237e-19
1.09088e-18
7.03583e-19
9.37251e-19
5.60533e-19
9.44838e-19
1.47867e-18
2.65035e-18
1.4129e-19
8.84092e-19
1.50204e-18
1.32885e-19
1.80101e-18
2.26516e-18
1.87424e-18
2.41055e-18
5.11713e-19
1.5544e-18
3.78784e-18
5.97877e-18
9.05564e-18
2.83371e-18
3.33356e-18
5.74195e-19
4.09063e-18
1.43534e-18
3.96122e-18
3.84415e-18
1.19556e-18
2.11529e-18
4.17066e-18
4.05647e-18
5.81381e-18
1.39198e-18
1.69683e-18
5.39565e-19
5.84791e-19
3.98926e-19
6.34121e-19
1.06048e-18
9.22483e-19
0
1.33224e-19
1.15718e-18
9.48377e-19
7.11337e-19
2.14041e-18
1.01789e-18
4.98949e-19
8.74958e-19
1.51558e-18
1.41877e-18
2.32112e-19
8.632e-19
3.51325e-18
2.80048e-18
1.49069e-18
1.58361e-18
2.01219e-18
1.78361e-18
2.73939e-18
2.76898e-18
1.36512e-18
3.94567e-18
7.86456e-18
4.89818e-18
4.32135e-18
2.12023e-18
4.5296e-18
3.76273e-18
1.61172e-18
5.95379e-18
7.79336e-18
1.57576e-18
4.18363e-18
5.79833e-18
1.02299e-18
2.00176e-19
1.23065e-19
6.09808e-19
3.12773e-19
7.88522e-19
5.20547e-19
9.12023e-19
1.65559e-18
6.0286e-19
1.32468e-18
2.32714e-19
1.04289e-18
8.77657e-19
9.66435e-19
2.3133e-18
1.33785e-18
8.30929e-19
1.79311e-18
2.56356e-18
1.19914e-18
1.81886e-18
3.61826e-18
3.36623e-18
3.59003e-19
1.56047e-18
1.05864e-18
1.26717e-18
1.20219e-18
4.49854e-18
4.30182e-18
4.28936e-18
4.61355e-19
4.66679e-19
1.08419e-18
1.90559e-18
1.09176e-18
2.44013e-18
1.77902e-18
2.07706e-18
5.44445e-18
8.68141e-19
1.22849e-19
1.04704e-18
7.3699e-19
4.68723e-19
4.78444e-19
9.75667e-19
1.54536e-18
5.95282e-19
2.87915e-19
5.60731e-19
5.29198e-19
8.22605e-19
1.58773e-18
3.072e-19
6.43441e-19
1.05336e-18
1.11728e-18
7.92197e-19
5.99138e-19
1.90712e-18
1.02764e-18
1.68403e-18
6.51769e-19
9.84265e-19
1.23239e-18
1.62947e-18
9.75956e-19
4.83493e-18
3.62481e-18
2.67654e-18
1.62697e-18
3.66947e-18
1.78187e-18
1.05302e-18
4.74936e-18
1.19684e-18
1.83431e-18
2.8634e-18
1.97926e-18
4.25335e-19
5.21561e-19
8.39104e-19
9.22156e-19
9.98231e-19
6.90979e-19
7.2331e-19
1.24857e-18
5.0465e-19
8.68154e-19
5.9736e-19
3.55401e-20
3.80103e-20
1.1549e-18
7.43961e-19
1.01551e-18
3.47957e-19
1.2224e-18
7.53726e-19
1.33062e-18
8.64485e-19
1.84774e-18
2.54509e-18
1.11422e-18
1.0376e-18
2.25819e-18
1.96799e-18
3.77531e-18
3.72219e-18
2.13138e-18
2.5789e-18
6.30266e-19
8.46409e-19
9.35374e-18
7.01242e-19
5.91252e-18
8.11885e-19
5.61045e-18
6.54487e-18
3.38588e-18
1.10149e-18
1.9838e-20
1.12896e-19
3.66644e-19
4.14347e-19
8.28806e-19
1.09353e-18
1.72188e-19
1.48077e-19
7.10509e-19
1.39631e-18
2.07507e-19
6.2209e-19
7.66231e-19
6.24006e-19
4.55859e-19
1.30898e-18
3.85798e-19
3.22465e-19
5.76012e-19
1.17276e-18
6.29409e-19
1.59718e-18
1.00563e-18
7.40565e-19
2.4604e-19
1.67289e-18
1.17431e-19
3.57265e-18
4.08598e-18
3.2422e-18
8.8139e-19
1.84487e-18
1.29883e-18
3.42882e-18
1.43191e-18
9.8132e-19
4.22658e-18
2.58847e-19
3.32855e-18
4.75785e-18
5.65454e-19
8.19628e-18
6.54254e-19
7.20475e-19
8.5527e-19
3.77127e-19
1.99856e-19
1.27402e-19
5.99995e-19
1.13687e-18
4.36417e-19
5.48532e-19
4.02585e-19
3.3207e-19
1.42174e-18
2.16795e-18
4.11615e-19
2.86632e-19
1.81945e-18
1.33834e-18
1.22681e-18
5.55594e-19
3.31368e-18
9.49232e-19
2.92994e-18
8.83744e-19
1.8373e-18
6.58857e-19
2.73511e-18
4.586e-18
3.88502e-18
1.80112e-18
5.89746e-19
3.62681e-18
6.00496e-18
2.75334e-20
1.24144e-18
5.4955e-18
4.01419e-18
7.94966e-18
6.24698e-18
2.09263e-18
7.59352e-18
3.24623e-19
1.93078e-19
1.76739e-19
6.54528e-19
2.85891e-19
7.40641e-19
8.41308e-19
4.5379e-19
6.51949e-19
1.43009e-18
1.18183e-18
6.39786e-19
7.19397e-19
5.16432e-19
7.64685e-19
9.12051e-19
1.20897e-18
1.19576e-18
8.414e-19
3.90073e-19
7.72903e-19
7.36662e-19
5.75627e-19
1.99503e-19
4.88954e-19
3.97447e-18
9.36121e-19
2.15025e-18
1.70609e-18
2.39733e-18
4.14296e-19
3.52389e-18
1.30997e-18
5.49115e-18
6.1157e-18
6.57564e-18
1.43273e-18
3.8634e-19
1.64678e-18
1.77929e-18
7.13083e-18
6.77082e-20
4.48462e-19
4.9588e-19
7.36766e-19
5.86487e-19
2.5436e-19
7.28956e-19
4.58175e-19
1.52379e-19
3.90497e-19
5.58813e-19
4.08054e-19
5.90023e-19
5.23175e-19
8.32831e-19
7.46933e-19
1.5866e-18
1.69896e-18
1.27298e-18
3.73825e-19
3.89401e-19
1.59378e-18
1.56029e-19
1.36209e-19
2.15692e-18
2.92664e-19
4.57591e-19
5.18038e-18
1.49533e-18
3.51614e-19
1.01538e-18
2.75064e-18
1.91122e-18
2.3859e-19
1.54034e-18
4.09623e-18
3.14163e-18
4.23089e-18
1.15046e-18
1.99982e-18
6.81327e-18
5.74626e-20
1.97281e-19
3.52949e-19
8.01582e-20
5.93579e-19
6.51805e-19
2.43756e-19
2.71138e-19
3.94511e-19
1.24537e-18
4.44421e-19
4.51226e-19
8.21047e-19
2.18943e-19
1.17908e-18
5.10548e-19
1.89693e-18
1.58295e-18
2.03591e-18
1.69704e-18
9.67707e-19
1.22709e-19
1.20937e-19
1.27377e-18
6.58656e-19
9.63023e-19
1.31304e-18
9.05693e-20
1.87958e-18
2.94126e-18
2.2844e-18
2.68095e-18
5.00237e-18
2.85896e-19
1.38212e-18
5.05565e-18
1.97895e-18
1.91502e-18
9.06005e-18
1.17876e-18
6.51992e-18
2.54095e-19
6.79663e-19
6.98211e-19
4.5247e-19
7.16445e-19
2.93105e-19
3.46318e-19
3.31815e-19
3.55478e-19
4.89761e-19
7.42003e-19
9.64653e-20
5.20082e-19
1.98792e-19
3.2078e-19
7.41252e-19
8.09785e-19
4.77079e-19
1.19338e-18
1.74456e-18
7.9226e-19
1.87951e-18
2.00922e-18
1.87195e-18
3.29818e-20
2.51504e-18
2.92641e-18
1.09265e-18
4.6649e-19
4.47419e-19
3.60206e-18
4.21641e-18
1.01145e-18
8.02496e-19
2.26595e-18
9.38438e-19
1.90218e-18
2.54544e-18
7.84643e-19
5.90416e-18
1.28001e-17
5.32208e-19
5.71961e-19
6.49773e-19
1.90011e-19
4.25097e-19
9.5061e-20
5.21737e-19
5.39593e-19
4.4628e-19
4.95561e-19
4.47691e-19
5.51085e-19
3.13451e-19
4.93745e-19
6.82836e-19
1.88963e-19
1.00233e-19
4.86661e-20
3.53093e-19
4.82929e-19
1.94504e-18
9.72198e-19
3.01003e-19
8.63288e-19
5.10003e-19
7.39669e-19
2.04048e-18
1.57344e-18
4.31218e-18
2.94474e-18
9.3851e-19
1.74986e-18
4.91081e-20
1.94422e-18
7.61522e-19
2.73549e-18
7.6835e-18
9.07827e-18
4.04995e-18
3.26286e-18
6.43109e-19
7.86998e-18
3.57284e-18
1.07767e-18
2.31375e-18
9.53887e-18
7.42282e-18
6.93991e-18
1.19886e-17
3.05725e-18
4.53382e-18
9.76322e-18
8.51624e-18
8.35584e-18
7.51755e-18
3.50095e-18
2.60661e-18
2.83049e-18
6.90882e-17
1.74826e-18
1.76728e-19
1.50665e-18
3.76047e-18
1.29083e-18
1.31255e-18
4.08646e-18
3.27013e-18
1.03917e-18
3.3506e-17
4.03423e-19
1.96098e-18
1.79168e-18
2.01548e-19
4.2988e-17
8.88047e-19
2.27878e-18
5.48663e-19
1.84587e-18
1.77839e-18
2.48245e-18
8.51624e-19
6.82575e-19
5.54981e-19
1.93754e-17
5.5541e-19
6.79191e-19
1.24458e-18
2.63186e-17
4.58881e-19
3.69983e-19
4.38641e-19
6.20013e-20
3.25192e-19
2.10472e-19
2.38259e-19
6.3202e-19
8.3567e-19
2.08069e-19
2.67422e-19
9.45858e-18
7.22693e-19
3.88589e-19
1.3623e-17
2.07108e-19
1.54672e-19
3.95926e-19
9.4937e-18
3.05341e-19
7.82291e-18
7.06568e-20
2.13263e-19
1.7815e-19
2.36433e-19
8.2861e-20
3.92071e-19
1.59386e-17
1.5448e-17
3.09323e-18
4.16871e-18
7.37478e-18
7.73077e-18
7.50717e-18
4.88085e-18
5.52511e-18
2.55138e-18
1.29483e-18
5.64406e-18
9.38692e-18
1.02495e-17
5.57601e-18
4.86145e-18
6.93304e-18
2.58147e-18
5.71369e-18
2.12044e-18
3.93989e-18
5.36235e-18
1.68833e-18
3.98107e-18
2.79853e-18
7.74892e-18
7.53315e-19
3.69915e-18
4.57312e-18
2.90732e-18
2.45207e-18
2.25787e-18
1.88326e-18
1.05296e-18
2.51961e-18
1.31839e-18
1.47406e-19
1.27803e-18
2.05364e-18
4.73805e-19
4.79857e-18
1.90123e-18
1.95539e-19
5.24659e-19
3.15405e-19
1.74654e-19
3.43016e-19
3.66321e-19
1.2979e-19
1.12026e-18
1.68e-18
1.61694e-18
4.66637e-19
9.96229e-19
3.26417e-19
1.233e-19
1.09453e-19
5.0629e-19
4.57722e-19
8.39758e-19
9.17063e-19
1.33306e-18
3.81874e-19
1.74809e-18
9.59668e-19
6.78238e-19
8.8402e-19
3.30883e-19
9.59282e-20
5.05355e-19
6.1569e-19
6.82326e-20
2.07628e-19
3.73915e-19
2.47122e-18
3.48097e-18
6.67782e-18
2.99544e-18
1.09745e-17
7.87017e-18
1.5953e-17
1.01681e-17
9.52542e-18
1.44014e-18
1.8835e-18
1.65267e-18
1.33007e-18
7.24298e-18
7.14326e-19
1.04651e-17
6.52355e-18
1.13294e-18
7.20577e-19
2.47097e-18
7.2012e-18
8.40262e-19
3.50792e-18
2.90259e-18
4.73867e-18
5.38297e-18
3.50057e-18
2.75664e-19
4.53618e-19
3.73213e-18
2.16548e-18
2.22577e-18
2.06651e-18
7.0356e-19
1.28989e-18
2.98883e-19
1.91829e-19
4.42915e-20
9.30894e-19
1.07515e-18
5.90567e-19
3.6308e-19
3.37301e-19
7.69741e-19
1.42156e-19
1.83093e-18
1.558e-18
1.56523e-19
1.01564e-18
1.11723e-18
8.56315e-19
3.21129e-19
1.44172e-19
4.2475e-19
6.08188e-19
1.10726e-18
3.04519e-19
5.59706e-19
2.55338e-20
6.22664e-19
1.48576e-19
2.00506e-19
8.34337e-19
7.64077e-19
3.00226e-19
3.64961e-19
3.39106e-19
6.8259e-19
1.44055e-19
3.23635e-19
2.32853e-19
6.83912e-19
2.49244e-19
2.51398e-20
2.71316e-17
9.62708e-18
6.04842e-19
1.71014e-18
7.18261e-18
1.10151e-18
1.16148e-18
8.48385e-18
3.38577e-18
5.52658e-18
6.6852e-18
5.58386e-18
6.55731e-19
1.3627e-18
2.39124e-18
6.56186e-18
4.03889e-18
2.8334e-18
7.08177e-18
4.14448e-18
1.16642e-18
8.02524e-19
6.06185e-18
1.88534e-18
4.11781e-18
5.19909e-18
5.56439e-19
2.84264e-18
9.63467e-19
5.48514e-19
3.80928e-18
1.09738e-18
1.64398e-18
3.45333e-19
5.91005e-19
1.57836e-18
1.69685e-18
2.6918e-18
3.73469e-18
1.54065e-18
2.50588e-18
1.32554e-18
1.33612e-19
3.28036e-19
1.28706e-18
1.42286e-18
1.53137e-18
6.08482e-19
1.31405e-18
8.55659e-19
9.47807e-19
4.41203e-19
7.94166e-19
9.73189e-19
1.00678e-18
8.22662e-19
2.12738e-19
3.46053e-19
6.44384e-19
8.76995e-19
9.28805e-19
3.65055e-19
1.19407e-19
1.15056e-19
4.65621e-19
6.85748e-19
8.58436e-19
4.28068e-20
3.92422e-19
7.14367e-19
2.19714e-19
4.02594e-19
1.97454e-19
6.64173e-19
1.18352e-17
2.48184e-18
1.54468e-17
1.32111e-17
1.23815e-18
2.5392e-18
2.40539e-18
7.44903e-18
6.33462e-18
2.1211e-18
1.30115e-18
2.01054e-18
1.72002e-18
6.72096e-18
4.37256e-18
2.3817e-18
5.5666e-18
6.0259e-18
5.02747e-19
2.82513e-18
3.50759e-19
9.44265e-19
1.73895e-18
2.70933e-18
5.06535e-18
2.37476e-18
2.66877e-18
2.9757e-18
2.37775e-18
5.46294e-19
1.34021e-18
1.55548e-18
8.73132e-19
7.12705e-20
5.01526e-19
1.39457e-18
8.65393e-19
1.59888e-18
1.48386e-18
1.37388e-18
9.64692e-19
2.97427e-19
8.18065e-19
1.76316e-18
1.40077e-18
1.50933e-18
3.97375e-19
1.96659e-19
1.52168e-18
4.765e-19
2.91398e-19
2.66975e-19
4.94056e-19
6.72618e-19
1.03364e-18
9.53344e-19
3.50798e-19
6.6091e-19
1.79589e-19
2.72957e-19
6.218e-19
4.00321e-20
3.45647e-19
1.07677e-19
6.19499e-19
4.88457e-19
4.19859e-20
5.22931e-20
2.48557e-19
8.96416e-19
1.18061e-19
3.76117e-19
1.76975e-19
3.15822e-19
3.6894e-18
7.87802e-18
1.20088e-18
4.7334e-18
9.57246e-18
6.30022e-18
2.13056e-18
3.79691e-18
5.29432e-18
4.42322e-18
3.67034e-18
1.07873e-17
5.08211e-18
4.7856e-18
7.37279e-18
1.00372e-17
1.85228e-18
3.85465e-18
5.18236e-18
7.25851e-18
3.43024e-18
4.29358e-18
5.26613e-19
2.79325e-18
8.7278e-19
8.19383e-19
2.71455e-18
1.85589e-18
7.42719e-19
1.57125e-18
3.79751e-18
3.81105e-18
1.02378e-18
9.48277e-19
4.39971e-18
1.64222e-18
8.08439e-19
1.77306e-18
2.9651e-18
1.52986e-18
1.72283e-18
1.34209e-18
2.15946e-20
9.05881e-19
6.38882e-19
3.95262e-19
2.15964e-18
6.78416e-19
9.22017e-19
2.96183e-19
2.68507e-19
0
1.78291e-18
1.85839e-18
7.57002e-19
3.56992e-19
4.88784e-19
1.30481e-20
5.46585e-19
5.01019e-19
3.45645e-19
2.17973e-19
5.93115e-19
7.13565e-19
1.62887e-19
2.9906e-19
2.84981e-19
2.51261e-19
3.52538e-19
4.27167e-19
5.81358e-19
1.83619e-19
2.50585e-19
5.94639e-19
2.02653e-18
8.65586e-18
4.13741e-18
7.74145e-18
5.49076e-18
7.52142e-18
6.60095e-18
1.54843e-17
3.93726e-18
8.7536e-18
1.74227e-18
2.46203e-18
4.67078e-18
3.83274e-18
2.43518e-19
6.51739e-19
1.83498e-18
6.35301e-18
8.25173e-18
6.63309e-18
5.76606e-18
4.06697e-18
4.30434e-19
4.2222e-19
3.75134e-18
4.95963e-18
3.654e-18
4.11234e-19
2.05189e-18
1.08218e-18
5.55615e-19
2.40164e-18
1.59504e-19
1.2396e-18
3.40848e-20
3.60769e-19
2.01719e-18
2.81639e-18
2.92229e-18
2.1714e-18
1.76952e-18
1.1923e-18
1.97307e-18
1.11335e-19
1.50525e-18
7.01282e-19
9.76108e-20
3.04198e-19
8.33503e-19
1.03346e-18
9.60788e-19
1.32043e-18