/*--------------------------------*- C++ -*----------------------------------*\
| =========                 |                                                 |
| \\      /  F ield         | OpenFOAM: The Open Source CFD Toolbox           |
|  \\    /   O peration     | Version:  2312                                  |
|   \\  /    A nd           | Website:  www.openfoam.com                      |
|    \\/     M anipulation  |                                                 |
\*---------------------------------------------------------------------------*/
FoamFile
{
    version     2.0;
    format      ascii;
    arch        "LSB;label=32;scalar=64";
    class       volScalarField;
    location    "0";
    object      turbulenceProperties:epsilon;
}
// * * * * * * * * * * * * * * * * * * * * * * * * * * * * * * * * * * * * * //

dimensions      [0 2 -3 0 0 0 0];

internalField   nonuniform List<scalar> 
11040
(
303.123
288.787
285.333
278.73
269.762
260.614
252.5
245.84
240.615
236.622
233.68
231.575
230.102
229.086
228.354
227.76
227.188
226.523
225.693
224.614
223.266
221.286
218.51
215.428
212.293
209.101
205.886
202.66
199.447
196.258
193.11
190.013
186.974
184.01
181.133
178.336
175.617
173.009
170.498
168.094
165.777
5.05045e-31
7.18315e-30
1.96237e-30
1.22199e-31
1.10699e-31
3.85505e-30
3.76104e-30
1.07475e-30
3.29749e-30
0
6.27283e-30
1.61687e-31
2.8459e-31
1.58179e-29
3.83467e-30
3.1803e-30
1.10331e-29
2.39927e-30
2.08628e-30
1.82311e-30
6.52476e-30
4.12945e-31
2.58692e-31
5.1837e-32
5.29217e-32
1.61743e-33
4.59493e-31
1.83417e-30
1.77558e-30
2.52632e-31
1.41675e-30
1.91101e-30
1.90811e-30
1.78597e-30
1.98409e-30
1.99627e-31
1.79488e-30
2.14736e-30
2.45747e-30
4.89956e-32
1.73991e-30
3.05975e-31
2.84705e-31
2.94097e-30
4.07607e-30
6.95843e-32
1.10867e-30
2.56249e-30
3.49565e-36
5.06109e-30
6.91667e-30
4.36293e-30
3.30585e-30
3.00524e-30
2.64713e-30
5.75601e-34
2.25197e-30
5.71631e-31
9.9696e-32
1.54097e-30
5.12116e-30
2.11417e-32
4.37143e-30
4.55219e-30
3.48838e-32
2.77411e-31
4.37694e-30
1.61665e-30
1.23403e-30
4.58036e-30
1.07605e-33
1.32674e-30
1.36721e-31
9.52671e-31
1.09156e-33
1.73694e-30
1.33892e-30
5.39073e-31
1.25106e-30
1.39568e-30
4.67216e-30
1.74629e-30
2.76466e-30
2.57431e-30
2.74358e-30
2.06768e-32
4.93932e-35
5.60756e-31
4.86561e-30
9.98959e-31
3.97245e-31
3.25584e-30
3.87324e-30
2.93529e-30
3.09533e-31
2.07952e-30
1.54753e-30
8.54859e-32
1.36889e-30
8.57135e-33
1.08177e-30
3.35154e-30
3.01294e-30
3.1228e-30
2.93373e-30
9.88007e-32
3.15811e-30
1.21449e-29
1.1564e-31
3.11524e-30
2.99248e-30
8.04377e-31
7.79594e-31
9.84031e-31
9.42299e-32
8.16507e-31
1.08474e-30
8.1556e-31
1.18281e-30
3.5821e-31
1.12846e-31
1.14704e-31
7.26108e-31
1.45111e-30
2.28778e-30
2.69174e-30
6.34317e-31
4.8004e-31
3.01708e-30
7.05484e-31
2.89935e-31
2.01506e-30
7.30736e-35
1.65153e-35
1.50886e-30
5.06057e-33
7.22272e-32
1.11827e-30
1.02079e-30
9.26771e-31
7.39875e-31
1.52256e-34
2.66001e-33
6.0197e-32
2.02877e-31
9.82328e-32
7.80392e-32
7.89778e-32
1.94497e-30
1.95824e-30
3.14476e-31
5.74522e-31
4.78917e-31
1.58975e-32
6.59235e-32
6.20196e-32
5.79151e-31
2.44963e-31
4.88977e-31
0
1.14646e-30
1.22964e-31
6.34906e-31
1.97545e-35
3.17166e-31
1.02461e-30
1.33563e-30
1.6002e-30
3.59315e-31
1.3867e-30
1.83758e-30
1.36505e-30
6.78119e-31
1.37443e-30
4.5129e-30
3.68378e-30
2.96308e-32
7.77521e-31
1.0481e-31
6.91215e-31
7.28552e-31
6.25679e-32
1.29464e-32
1.52698e-30
4.20193e-32
1.42875e-30
4.55794e-32
2.63723e-32
1.39646e-30
4.24011e-32
1.51981e-30
1.43559e-30
3.6351e-31
8.30362e-32
4.14212e-32
3.10684e-31
3.20999e-31
1.51615e-30
6.41853e-31
3.89701e-31
4.16127e-31
1.0327e-30
3.68443e-31
3.76782e-31
1.70424e-31
7.3122e-33
2.01749e-30
8.31482e-31
8.25024e-31
3.75157e-32
1.08219e-30
9.46356e-31
1.39279e-31
9.95147e-32
1.14015e-31
8.3762e-32
2.51294e-30
5.36655e-34
5.18862e-31
4.78565e-31
1.67375e-30
3.59198e-31
3.9362e-32
3.42562e-32
7.61479e-33
7.9952e-33
5.2603e-32
7.11191e-32
7.2281e-32
3.61739e-30
1.04355e-30
9.39704e-31
9.88961e-31
2.8672e-32
9.24005e-31
2.49933e-31
2.28976e-31
1.89382e-31
5.91775e-31
3.57152e-31
2.75694e-31
2.08589e-31
8.96764e-31
3.43377e-31
5.09173e-31
7.8323e-33
1.62103e-32
7.17164e-31
7.03163e-31
4.91719e-31
3.15125e-31
2.24104e-31
2.82934e-31
2.08868e-33
5.2191e-31
4.1393e-31
5.41813e-31
5.99448e-32
1.75313e-31
3.53668e-31
3.71702e-31
1.08082e-30
2.22492e-31
8.42422e-32
1.71176e-31
1.25459e-31
3.43833e-33
5.95469e-31
4.73889e-32
6.84318e-31
6.0133e-32
4.18185e-32
3.75794e-31
8.20983e-31
1.86893e-31
2.30303e-31
1.67976e-31
5.15434e-31
2.05071e-31
6.00582e-32
3.69769e-32
3.69525e-32
1.49136e-31
5.66779e-31
1.75328e-31
1.45036e-39
2.34312e-33
4.44252e-38
1.44918e-32
4.57227e-31
2.02944e-31
1.8127e-31
0
2.08802e-30
5.1651e-31
1.20178e-30
4.48252e-32
2.58413e-34
2.56893e-34
8.44624e-31
6.31272e-31
4.15355e-31
2.28281e-31
3.98404e-32
5.29183e-31
1.56964e-32
4.13273e-31
3.42716e-31
2.00872e-32
7.61672e-32
1.14364e-33
4.75514e-31
4.88147e-31
8.98333e-32
5.03608e-31
3.98548e-31
2.59767e-31
3.23223e-31
1.13033e-31
1.14826e-31
1.20186e-31
1.10833e-31
1.24007e-31
1.01399e-31
1.1027e-34
8.80617e-32
8.68793e-32
1.57204e-33
1.50736e-31
5.53226e-33
3.71698e-31
1.06515e-31
3.03898e-31
9.64777e-31
2.72924e-31
9.4147e-32
2.72945e-31
6.68313e-34
2.10767e-31
1.91611e-31
2.75883e-31
7.78397e-31
2.08079e-30
3.2634e-32
3.3694e-31
4.32855e-32
2.76896e-31
2.86742e-31
1.25093e-32
2.74746e-31
2.34316e-31
2.86916e-31
2.5882e-31
1.7221e-31
2.11626e-31
5.10589e-32
3.53864e-31
2.66469e-32
6.99822e-32
2.96705e-31
9.91007e-32
6.48769e-32
3.63318e-31
2.58764e-34
2.04184e-31
2.94551e-31
8.26297e-33
9.11828e-32
5.46747e-31
7.91254e-32
2.44617e-31
2.36923e-31
3.70357e-31
5.63006e-32
1.83637e-31
6.0233e-32
1.5238e-31
1.08023e-31
1.67528e-31
1.55079e-32
1.02755e-31
3.21547e-31
4.25441e-32
1.16396e-32
2.33724e-33
5.39153e-32
1.75352e-33
2.88818e-31
2.16996e-31
5.20694e-32
1.43102e-32
8.04655e-32
2.13011e-32
2.1491e-31
1.64187e-32
3.46515e-31
2.44621e-31
9.22235e-32
5.45701e-33
1.06153e-33
3.41688e-32
9.16919e-32
1.09859e-32
1.9102e-31
2.34402e-31
1.50365e-31
1.41418e-31
5.89667e-33
1.93143e-31
6.30317e-33
8.68214e-32
4.62598e-32
1.25787e-31
2.36073e-32
2.23571e-31
3.88892e-32
3.07696e-32
3.85892e-32
1.83244e-31
1.85016e-31
3.50026e-31
1.39454e-32
2.91375e-31
2.13281e-31
6.77052e-32
7.5723e-32
1.1339e-32
8.70361e-33
4.88808e-32
4.72539e-32
1.99645e-32
1.18683e-31
5.64918e-32
3.49329e-31
1.8227e-31
2.70095e-31
4.92474e-32
1.29431e-31
4.31776e-31
3.67385e-32
3.68609e-33
1.09216e-31
1.14822e-31
3.24793e-32
6.44968e-32
1.8164e-31
4.71517e-31
6.14734e-32
1.17759e-31
1.97902e-31
2.4037e-31
2.59715e-31
5.36408e-32
5.64832e-33
4.10876e-33
1.02894e-31
9.91366e-32
5.06244e-32
3.42006e-31
1.21365e-31
6.8467e-32
1.2569e-31
4.20388e-31
2.07669e-31
4.04167e-32
1.24546e-31
1.21529e-31
7.80268e-32
8.55519e-32
5.04495e-32
5.84062e-31
5.55562e-34
5.11113e-31
1.04529e-31
9.1804e-34
1.7729e-32
1.36614e-31
3.13789e-33
5.98249e-32
1.55157e-31
1.04159e-32
1.54348e-31
3.6839e-31
4.85419e-33
1.00024e-31
1.16606e-31
7.5062e-32
2.85155e-31
2.3855e-31
6.42549e-32
5.53482e-33
1.77766e-31
1.37403e-31
7.42132e-32
2.50705e-32
2.32227e-32
1.06447e-31
2.21721e-32
1.86556e-31
6.62879e-32
1.08167e-32
1.78523e-31
1.10887e-31
6.40605e-32
9.08921e-33
3.55447e-32
1.06161e-32
7.41515e-32
3.65921e-33
7.79877e-32
2.04862e-31
1.93484e-31
3.33412e-32
6.55824e-32
6.01968e-32
3.642e-32
4.37682e-32
3.78376e-32
6.37957e-32
1.18201e-32
5.44919e-32
5.57788e-32
3.93224e-32
4.76582e-33
4.69298e-32
8.02372e-32
2.1152e-31
2.87399e-32
3.193e-33
1.91811e-32
5.73138e-32
8.14558e-33
1.62832e-33
3.22441e-34
1.22007e-31
6.15178e-32
6.12575e-32
6.64749e-33
2.39611e-33
2.90586e-32
9.46446e-34
1.57401e-31
6.76714e-32
1.86247e-31
2.19916e-31
5.1245e-32
1.28499e-31
2.14832e-32
1.15686e-31
1.11588e-31
1.30852e-31
1.54698e-32
9.05683e-34
1.5329e-31
2.79714e-32
2.97946e-32
1.42554e-32
3.07474e-32
2.21917e-32
6.24349e-32
1.33725e-31
6.854e-32
9.21016e-32
4.97859e-32
1.67062e-33
1.35537e-31
6.1406e-32
6.38775e-32
2.48285e-31
3.40236e-31
2.84475e-31
8.69889e-32
3.38785e-32
8.54391e-33
2.14699e-32
6.56924e-32
3.0424e-32
1.52916e-32
4.4996e-32
1.61931e-32
5.52671e-32
9.60825e-32
4.46901e-32
4.9024e-32
1.30324e-32
3.0013e-32
3.06713e-33
2.93117e-32
5.96123e-32
1.60448e-31
2.68749e-31
1.53843e-31
5.28535e-33
2.02148e-32
4.76549e-32
8.06131e-32
4.0541e-32
6.70313e-33
6.15407e-32
2.27679e-31
3.80493e-31
2.9165e-31
2.75777e-33
1.63878e-31
6.51398e-32
2.58216e-32
2.19488e-31
2.3264e-31
6.74e-32
2.02586e-33
1.37046e-31
1.56031e-31
1.05982e-31
3.97437e-32
0
1.97326e-37
2.01081e-32
1.52865e-32
3.23309e-32
3.89572e-32
9.29323e-33
4.1071e-32
4.68911e-32
5.8689e-33
9.0577e-32
6.609e-32
6.55809e-33
2.97707e-32
7.90149e-32
1.40404e-31
2.58429e-32
8.67594e-32
9.33593e-32
2.90831e-32
9.44319e-33
3.03849e-32
8.60181e-32
1.10158e-31
1.41903e-31
3.36549e-33
5.44424e-32
1.10631e-32
3.71083e-34
1.94899e-32
1.22182e-31
4.26623e-31
1.73075e-31
6.29019e-32
5.18466e-32
1.75903e-32
5.44033e-32
1.25724e-31
1.7622e-31
8.6449e-32
2.36082e-32
3.60509e-33
2.38696e-32
2.75921e-32
3.21236e-32
2.88226e-32
9.67053e-33
1.31341e-32
8.63576e-32
2.57073e-31
3.57917e-32
1.13368e-31
4.00581e-32
3.95992e-32
1.11379e-32
4.93899e-32
2.10535e-31
1.05232e-32
5.93787e-32
3.98477e-32
4.28354e-33
8.07358e-32
4.13615e-32
1.19215e-32
2.47301e-32
1.01219e-33
3.01218e-32
5.7518e-33
5.27076e-32
5.86726e-32
1.12685e-33
1.27098e-33
2.31255e-33
7.17073e-32
5.67492e-32
6.34318e-33
4.53512e-34
5.41583e-32
2.4025e-32
1.80365e-31
5.40324e-32
2.31873e-33
7.07668e-34
1.50561e-32
2.64506e-32
1.01971e-32
1.06096e-32
3.31367e-33
1.69936e-32
8.36612e-33
3.71741e-32
3.43826e-33
1.16804e-32
5.41793e-32
4.79308e-34
5.01658e-32
1.39997e-32
4.40285e-32
3.32131e-33
2.63294e-32
4.59841e-32
1.20589e-32
1.13311e-32
3.46163e-32
6.34539e-32
3.91259e-33
3.12936e-33
9.87229e-32
2.24741e-32
1.4071e-32
1.02821e-32
2.77143e-32
5.03579e-33
3.35448e-33
4.03529e-33
2.10373e-32
4.76641e-33
1.28131e-33
2.06047e-32
2.10192e-32
6.5526e-33
8.78405e-34
1.11518e-31
2.9677e-31
6.0891e-33
1.78573e-32
1.13809e-33
2.03957e-32
6.63789e-33
2.81029e-32
1.15013e-32
3.55922e-32
6.49573e-32
3.42631e-32
7.64535e-33
1.27223e-32
5.91287e-32
1.39656e-32
4.90844e-32
8.46356e-34
9.13358e-34
6.34588e-33
9.98077e-34
2.48574e-32
2.28344e-32
1.69816e-32
2.33545e-32
2.47197e-32
3.18411e-32
9.0254e-33
9.93429e-32
2.03678e-31
4.59207e-33
4.71465e-33
7.78631e-32
4.4958e-32
1.83075e-33
2.98873e-31
5.78363e-31
3.51202e-32
5.8424e-33
2.01144e-32
9.52117e-32
1.35848e-31
2.43623e-31
1.5092e-34
7.86814e-33
1.7455e-33
1.40804e-32
6.0182e-33
1.72057e-33
6.37736e-33
2.66897e-33
4.8061e-33
1.56548e-32
3.70391e-32
2.60415e-32
3.63269e-33
5.8816e-32
2.11829e-32
3.32892e-33
1.11599e-32
3.48011e-32
3.00011e-32
7.36618e-32
6.21959e-32
8.35622e-32
4.34195e-33
5.81362e-32
4.54003e-32
1.89569e-32
4.78448e-32
1.0809e-31
1.75708e-31
7.79596e-32
4.92397e-32
6.81883e-32
1.20359e-31
2.55868e-32
9.3016e-33
3.60529e-31
3.25285e-31
8.27245e-32
8.14168e-33
7.87303e-33
5.5402e-32
2.66076e-34
8.65653e-35
1.96986e-34
3.46492e-33
1.67573e-33
2.30427e-32
3.89425e-33
2.6204e-32
2.74441e-32
1.02871e-32
9.04314e-33
1.837e-32
3.56994e-34
2.5357e-32
7.30579e-33
4.38381e-33
8.35051e-33
5.16741e-33
6.57467e-33
1.87777e-32
1.11202e-32
4.73416e-34
1.00399e-32
2.22366e-32
3.85555e-32
2.07127e-32
1.15725e-32
1.56864e-31
7.36096e-33
5.47691e-32
1.53471e-33
4.43679e-32
7.95758e-33
3.53394e-33
1.4433e-33
1.46083e-33
9.21668e-33
1.16115e-31
2.75403e-31
1.6889e-32
5.00898e-33
5.93893e-33
1.75007e-33
8.62669e-33
1.46252e-32
2.72563e-33
1.48178e-32
7.76986e-33
1.71928e-32
2.63365e-33
2.63388e-32
2.35812e-34
7.07781e-33
8.41333e-32
4.15895e-32
3.2026e-32
2.3132e-33
1.05099e-32
2.11142e-32
2.3606e-32
4.09045e-33
5.57049e-33
7.22653e-32
5.14542e-32
2.33375e-33
3.67865e-32
1.18809e-32
1.4895e-32
7.85018e-32
5.34736e-33
2.28629e-31
5.46999e-32
6.39849e-33
2.61665e-32
6.05484e-32
1.11054e-31
9.13857e-33
8.00485e-32
3.86801e-32
2.22715e-32
7.0815e-32
9.2278e-38
3.01433e-33
1.01658e-32
1.79806e-32
4.21315e-33
3.93999e-32
5.95358e-33
8.30764e-35
5.2884e-33
4.81341e-33
1.23106e-32
5.82486e-33
1.92989e-32
5.83129e-33
2.27441e-32
1.93098e-32
1.34483e-32
5.52602e-33
2.98095e-33
6.51172e-33
7.86895e-34
5.29666e-33
6.7438e-32
1.00102e-32
2.72237e-33
1.17333e-32
9.90338e-33
1.13781e-32
2.64753e-32
2.90842e-32
4.15752e-32
1.989e-32
1.36321e-33
7.30709e-32
2.76183e-33
4.79088e-34
1.63624e-32
4.10003e-32
1.30987e-31
1.89164e-34
3.46721e-33
7.53694e-33
2.71425e-33
5.0768e-34
7.66266e-33
1.19762e-33
3.07772e-33
4.52436e-33
1.89153e-32
1.55674e-33
2.79759e-32
3.91256e-32
1.43342e-33
6.46296e-35
1.75402e-33
3.12019e-32
1.21803e-32
6.15278e-34
8.75023e-33
4.17224e-32
2.96308e-32
2.70047e-33
7.18132e-34
5.16427e-33
1.75861e-32
1.16187e-33
7.98766e-33
1.58427e-33
9.84049e-33
7.77211e-33
4.22924e-32
8.81811e-33
1.31335e-32
4.26037e-32
7.72947e-34
2.21749e-32
3.3871e-32
2.73607e-33
1.36967e-33
7.75778e-32
8.65815e-34
7.41745e-33
2.69917e-38
3.85749e-33
6.1931e-33
5.52358e-33
6.95325e-33
1.16391e-33
4.32043e-33
6.64818e-33
1.74395e-33
4.31193e-33
1.9518e-32
9.87573e-34
6.75345e-33
1.95095e-32
3.29701e-33
2.8102e-33
5.77969e-33
3.14661e-32
1.17837e-32
1.602e-33
1.63413e-32
2.18798e-32
3.36535e-32
8.08005e-32
1.06745e-32
2.63416e-32
1.10994e-32
3.78967e-33
8.00639e-33
2.41727e-32
3.97533e-32
6.02768e-32
3.30932e-32
7.35225e-32
1.12927e-32
2.65776e-32
1.11696e-31
1.26418e-31
8.60005e-34
3.11744e-32
9.79095e-33
2.23818e-33
2.63775e-33
1.23322e-33
5.20007e-34
2.0854e-34
3.20344e-33
2.44196e-33
2.63907e-33
4.51069e-33
8.80823e-34
7.19691e-33
6.43899e-33
9.82138e-33
2.99697e-33
1.82332e-32
1.59634e-33
4.88188e-33
2.96157e-32
4.13567e-32
2.26326e-33
2.56373e-33
4.10437e-33
3.1435e-33
1.14238e-32
3.47226e-33
1.21446e-32
1.59263e-32
3.86566e-32
1.3937e-34
3.78907e-32
1.32473e-33
5.96176e-32
2.61135e-33
1.95209e-32
2.03695e-32
1.57969e-33
5.45735e-33
2.30921e-32
3.20758e-33
2.93831e-32
2.12679e-34
5.80448e-32
0
2.93474e-34
1.17338e-34
4.76979e-35
4.14303e-33
4.09455e-33
5.78472e-33
8.94214e-34
1.60495e-33
7.16145e-33
6.89527e-34
1.05687e-32
8.38252e-33
1.72964e-33
1.9649e-32
6.80813e-33
2.45665e-34
1.55806e-32
1.08652e-32
2.3339e-33
1.02239e-32
1.92561e-33
6.91547e-33
2.78535e-33
3.76631e-33
2.34928e-32
3.72958e-33
5.01187e-33
1.74055e-33
3.27057e-33
1.17243e-32
2.10381e-32
5.89407e-32
1.96971e-32
4.06138e-32
9.88533e-33
1.9604e-32
4.58216e-32
5.32956e-32
7.45562e-33
1.42232e-33
5.88672e-33
3.0322e-33
3.79664e-34
4.48877e-35
1.29403e-33
2.52854e-34
2.18974e-33
6.14068e-33
1.92404e-33
1.15742e-34
9.10628e-35
2.83994e-33
9.41824e-34
2.0127e-33
8.05153e-34
1.87578e-33
3.83086e-33
8.01788e-34
1.92601e-33
8.43728e-33
5.61548e-33
5.98652e-33
1.86338e-33
2.24086e-33
1.20004e-33
1.04884e-33
2.53865e-33
3.62484e-32
2.05811e-32
2.79808e-32
1.43396e-33
2.29273e-33
1.21947e-33
3.80704e-33
4.07429e-33
1.44881e-33
8.87004e-33
6.71728e-33
3.0491e-33
9.01617e-33
3.68328e-32
3.692e-33
1.38621e-34
1.42549e-33
1.53964e-33
1.35677e-34
8.60765e-33
3.41106e-33
1.44399e-33
2.40869e-33
2.38366e-33
1.11684e-32
7.64868e-33
5.88886e-34
6.559e-34
4.34754e-33
1.8853e-34
1.35557e-33
3.59249e-33
6.64508e-33
2.06001e-33
1.05547e-32
1.84953e-34
6.82361e-33
4.37735e-33
1.72999e-33
3.43522e-34
3.02736e-34
2.20562e-33
2.55928e-34
8.43637e-33
8.66974e-33
2.8896e-32
3.86833e-32
4.08523e-32
4.58763e-32
7.14289e-33
1.0062e-32
3.43559e-32
1.85219e-33
1.52816e-34
3.35692e-32
4.11889e-35
9.80318e-35
4.44494e-33
1.13657e-33
4.9722e-34
2.09891e-33
4.06794e-35
3.03522e-33
5.38212e-35
2.29524e-33
2.61475e-33
1.33541e-32
1.29794e-32
4.49724e-33
5.06718e-33
1.22318e-32
2.99521e-33
1.02447e-32
5.74962e-33
1.70254e-33
1.53765e-34
7.19671e-33
1.60475e-32
3.39847e-32
1.43566e-32
6.75025e-34
2.77165e-33
1.67444e-33
9.53758e-33
1.09099e-32
1.442e-32
4.11018e-32
1.16327e-33
6.846e-33
1.79742e-32
4.29629e-32
2.62039e-32
2.94667e-33
5.82766e-34
9.60883e-33
7.78244e-34
2.10199e-33
6.29438e-34
4.32298e-33
4.04851e-33
1.17838e-33
5.57035e-34
3.73331e-33
1.44607e-33
3.81848e-33
7.18783e-35
3.51034e-33
7.72796e-34
2.41218e-33
7.46501e-34
1.89278e-33
1.00382e-33
2.70742e-33
9.12264e-35
1.18548e-32
2.31952e-32
1.26124e-32
3.03926e-33
2.2768e-33
6.4846e-33
4.41008e-33
1.06814e-33
7.22082e-33
3.14368e-32
6.46595e-34
1.74189e-33
3.1092e-32
2.31687e-32
9.84298e-33
5.26753e-33
8.02911e-33
1.21379e-33
2.17227e-32
1.73937e-32
2.40257e-32
1.16697e-32
7.89056e-32
2.02299e-33
1.64616e-35
2.03412e-33
2.91045e-33
2.90375e-34
2.54522e-33
2.91609e-33
0
1.25717e-33
1.22292e-33
5.03707e-33
4.49902e-34
1.24125e-34
2.17512e-33
8.10659e-33
6.17109e-33
1.26197e-33
1.42114e-32
1.23322e-33
5.38569e-33
5.7686e-33
2.58988e-32
2.0728e-32
7.61632e-33
7.00837e-34
9.21207e-33
3.61479e-32
3.99568e-32
3.68787e-34
1.03781e-32
6.7909e-33
4.07271e-35
4.23862e-33
1.07619e-32
3.39286e-33
1.89612e-32
3.29698e-33
3.66775e-32
3.25268e-32
1.17849e-32
6.35732e-32
3.07955e-37
1.46414e-33
1.4194e-33
1.55551e-33
2.98245e-33
3.2092e-34
2.00937e-33
7.40003e-34
0
2.2057e-33
3.21962e-34
1.27743e-33
1.42353e-33
1.10287e-33
3.8556e-33
5.48231e-34
1.25888e-34
1.14574e-32
2.56385e-32
4.03451e-34
6.29618e-33
3.801e-33
1.9694e-33
1.13959e-32
3.14065e-35
1.13044e-32
2.6139e-32
7.66584e-34
6.15303e-34
4.20552e-34
4.94871e-34
2.74987e-34
1.48176e-34
2.91263e-33
2.11893e-33
1.23041e-32
1.81827e-33
4.44137e-32
8.89966e-33
3.05712e-33
5.17061e-32
7.07135e-34
9.81808e-34
1.11875e-33
2.70184e-35
3.12126e-34
1.2197e-33
1.85348e-33
2.12117e-34
1.23552e-33
2.82078e-33
7.66042e-33
1.49584e-33
3.06677e-34
2.07108e-33
8.25854e-34
3.90022e-33
1.79262e-34
1.75468e-33
9.26769e-33
3.0447e-33
1.58349e-33
3.63456e-33
2.6763e-33
4.10977e-34
7.98783e-34
5.08195e-34
2.63568e-34
4.31554e-33
9.08251e-35
9.34396e-33
7.99505e-34
5.66712e-33
3.8954e-33
1.37233e-34
1.84454e-33
3.56887e-32
1.57833e-32
2.54547e-33
2.10946e-32
3.10471e-34
4.77765e-37
9.11129e-36
8.88714e-34
8.48053e-34
3.39138e-33
1.29222e-33
5.74108e-34
6.74434e-34
5.54032e-34
7.95705e-34
2.54662e-33
5.37465e-34
4.66421e-34
1.92169e-34
6.76703e-34
4.57702e-33
4.65411e-33
3.86862e-33
1.97826e-33
3.94986e-34
8.66809e-34
5.6507e-33
7.7979e-35
2.54678e-33
1.29368e-33
1.91442e-34
4.39878e-33
2.38453e-33
3.31644e-33
4.1947e-33
1.55386e-33
6.23135e-35
7.90163e-34
1.29091e-33
2.68942e-33
1.5383e-32
1.00092e-33
8.81447e-32
4.0405e-32
3.85288e-32
1.82083e-32
2.78457e-34
1.11637e-35
1.54721e-35
2.03393e-33
6.07361e-34
9.41915e-35
3.18496e-34
1.27965e-34
8.34271e-34
3.47043e-34
6.15834e-34
2.20269e-34
6.25845e-34
1.53284e-33
4.92445e-33
1.3995e-35
5.47958e-34
1.58167e-33
1.23795e-35
2.27397e-33
3.59709e-33
2.46265e-33
4.07364e-33
1.83571e-34
1.69386e-33
1.00585e-32
2.50597e-32
5.74897e-32
5.62941e-33
7.79055e-33
2.31138e-34
1.17309e-32
1.44431e-33
1.10004e-32
1.03598e-32
1.00206e-33
3.13684e-33
1.21945e-32
1.15358e-32
2.36959e-32
1.35838e-33
2.01849e-33
2.04098e-34
2.39747e-34
1.11567e-34
2.81901e-34
7.88422e-34
5.9658e-34
0
1.24427e-35
9.38756e-34
6.30542e-34
3.54734e-34
3.21177e-33
7.2636e-34
1.74528e-34
5.36693e-34
1.61031e-33
1.41116e-33
3.77701e-35
5.22366e-34
8.65305e-33
5.49814e-33
1.55786e-33
1.75813e-33
2.8385e-33
2.23024e-33
5.2609e-33
5.37516e-33
1.30646e-33
1.09142e-32
4.33611e-32
1.68198e-32
1.30916e-32
3.15151e-33
1.43837e-32
9.92565e-33
1.82108e-33
2.48507e-32
4.25796e-32
1.74073e-33
1.22704e-32
2.35699e-32
7.33665e-34
2.80917e-35
1.06175e-35
2.60698e-34
6.8582e-35
4.35893e-34
1.89964e-34
5.83127e-34
1.92157e-33
2.54792e-34
1.2302e-33
3.79661e-35
7.6248e-34
5.4001e-34
6.54783e-34
3.75159e-33
1.25478e-33
4.84038e-34
2.25406e-33
4.60723e-33
1.00807e-33
2.31926e-33
9.17807e-33
7.94401e-33
9.03542e-35
1.70711e-33
7.85683e-34
1.12569e-33
1.01321e-33
1.41871e-32
1.29735e-32
1.28984e-32
1.49219e-34
1.52682e-34
8.24066e-34
2.54572e-33
8.35619e-34
4.17426e-33
2.21878e-33
3.02448e-33
2.07807e-32
5.28363e-34
1.05803e-35
7.68568e-34
3.80781e-34
1.54023e-34
1.60478e-34
6.67352e-34
1.67422e-33
2.48426e-34
5.8114e-35
2.20425e-34
1.96331e-34
4.7439e-34
1.76728e-33
6.61597e-35
2.90248e-34
7.77872e-34
8.75143e-34
4.39966e-34
2.51655e-34
2.54982e-33
7.40344e-34
1.98817e-33
2.97811e-34
6.79166e-34
1.06475e-33
1.86142e-33
6.67748e-34
1.63882e-32
9.21135e-33
5.02225e-33
1.8557e-33
9.43973e-33
2.22588e-33
7.77366e-34
1.58133e-32
1.00422e-33
2.35883e-33
5.748e-33
2.74636e-33
1.26828e-34
1.90705e-34
4.93609e-34
5.96157e-34
6.98577e-34
3.3472e-34
3.66776e-34
1.09289e-33
1.78539e-34
5.28379e-34
2.50164e-34
8.85501e-37
1.01287e-36
9.35057e-34
3.88019e-34
7.22964e-34
8.48798e-35
1.04755e-33
3.98271e-34
1.24126e-33
5.23923e-34
2.39351e-33
4.54106e-33
8.70354e-34
7.54762e-34
3.57499e-33
2.71517e-33
9.99209e-33
9.71289e-33
3.18475e-33
4.66251e-33
2.78484e-34
5.02242e-34
6.1337e-32
3.44737e-34
2.45074e-32
4.62106e-34
2.20672e-32
3.00299e-32
8.03702e-33
8.50577e-34
2.75899e-37
8.93538e-36
9.42411e-35
1.2036e-34
4.81569e-34
8.38333e-34
2.07854e-35
1.53718e-35
3.53909e-34
1.36684e-33
3.01869e-35
2.71305e-34
4.11596e-34
2.72979e-34
1.45685e-34
1.20121e-33
1.04345e-34
7.28982e-35
2.32603e-34
9.64202e-34
2.77727e-34
1.78838e-33
7.08965e-34
3.84484e-34
4.2439e-35
1.96194e-33
9.6676e-36
8.94815e-33
1.17043e-32
7.3694e-33
5.44613e-34
2.38608e-33
1.18266e-33
8.24216e-33
1.43742e-33
6.75109e-34
1.25236e-32
4.69719e-35
7.76718e-33
1.58699e-32
2.24154e-34
4.70962e-32
3.00085e-34
3.63907e-34
5.12813e-34
9.97073e-35
2.80018e-35
1.1379e-35
2.52376e-34
9.061e-34
1.33523e-34
2.10939e-34
1.13623e-34
7.73056e-35
1.41708e-33
3.29496e-33
1.18778e-34
5.75971e-35
2.32078e-33
1.25569e-33
1.05514e-33
2.16405e-34
7.69794e-33
6.31679e-34
6.01823e-33
5.47526e-34
2.36654e-33
3.04323e-34
5.24447e-33
1.47442e-32
1.05813e-32
2.27425e-33
2.43827e-34
9.22148e-33
2.52797e-32
5.31461e-37
1.08045e-33
2.11722e-32
1.12966e-32
4.43047e-32
2.73585e-32
3.06999e-33
4.04239e-32
7.3877e-35
2.61346e-35
2.18987e-35
3.00337e-34
5.73e-35
3.84563e-34
4.96206e-34
1.44365e-34
2.97974e-34
1.43377e-33
9.79177e-34
2.8696e-34
3.62818e-34
1.86973e-34
4.09937e-34
5.83163e-34
1.02467e-33
1.00239e-33
4.96315e-34
1.0667e-34
4.18796e-34
3.80442e-34
2.32292e-34
2.79031e-35
1.67605e-34
1.10741e-32
6.1435e-34
3.24138e-33
2.04059e-33
4.0291e-33
1.2033e-34
8.70554e-33
1.20303e-33
2.11387e-32
2.62207e-32
3.0313e-32
1.43906e-33
1.04639e-34
1.90118e-33
2.21944e-33
3.56477e-32
3.21392e-36
1.40995e-34
1.72388e-34
3.80549e-34
2.4114e-34
4.53577e-35
3.72525e-34
1.47168e-34
1.6278e-35
1.06902e-34
2.1892e-34
1.16731e-34
2.44056e-34
1.91887e-34
4.86256e-34
3.91124e-34
1.76477e-33
2.02357e-33
1.13604e-33
9.79688e-35
1.06303e-34
1.78078e-33
1.70672e-35
1.30065e-35
3.26151e-33
6.0047e-35
1.46794e-34
1.88138e-32
1.56757e-33
8.66731e-35
7.22781e-34
5.3042e-33
2.56078e-33
3.99077e-35
1.66335e-33
1.17631e-32
6.9193e-33
1.25492e-32
9.27892e-34
2.80371e-33
3.25434e-32
2.31485e-36
2.72849e-35
8.73325e-35
4.50452e-36
2.47007e-34
2.97843e-34
4.16547e-35
5.15386e-35
1.09111e-34
1.0873e-33
1.38465e-34
1.42738e-34
4.72594e-34
3.36058e-35
9.74621e-34
1.82737e-34
2.52263e-33
1.75665e-33
2.90581e-33
2.019e-33
6.56508e-34
1.05561e-35
1.02535e-35
1.13745e-33
3.04137e-34
6.50167e-34
1.20868e-33
5.75062e-36
2.4767e-33
6.06485e-33
3.65843e-33
5.03884e-33
1.7543e-32
5.7302e-35
1.3392e-33
1.79187e-32
2.74552e-33
2.57098e-33
5.75458e-32
9.74097e-34
2.98014e-32
4.5263e-35
3.23847e-34
3.41764e-34
1.43526e-34
3.59847e-34
6.02279e-35
8.40819e-35
7.71869e-35
8.85885e-35
1.68159e-34
3.85978e-34
6.5237e-36
1.89625e-34
2.77044e-35
7.21382e-35
3.85197e-34
4.59718e-34
1.59563e-34
9.98406e-34
2.13367e-33
4.40035e-34
2.47653e-33
2.83014e-33
2.45663e-33
7.62609e-37
4.43445e-33
6.00376e-33
8.36975e-34
1.52559e-34
1.4034e-34
9.09605e-33
1.24634e-32
7.17203e-34
4.51479e-34
3.5996e-33
6.17395e-34
2.53663e-33
4.54231e-33
4.31614e-34
2.44382e-32
1.14862e-31
1.9857e-34
2.29343e-34
2.95989e-34
2.5311e-35
1.26686e-34
6.33515e-36
1.90834e-34
2.04119e-34
1.39626e-34
1.72166e-34
1.40511e-34
2.12907e-34
6.88799e-35
1.70906e-34
3.26878e-34
2.50325e-35
7.04323e-36
1.66037e-36
8.74038e-35
1.635e-34
2.65222e-33
6.62615e-34
6.35177e-35
5.22473e-34
1.82347e-34
3.83554e-34
2.9189e-33
1.73561e-33
1.3036e-32
6.0792e-33
6.1749e-34
2.14664e-33
1.69067e-36
2.64998e-33
4.06553e-34
5.24593e-33
4.13876e-32
5.77774e-32
1.14988e-32
7.46359e-33
2.89948e-34
4.34209e-32
8.94911e-33
8.14187e-34
3.75305e-33
6.3789e-32
3.86269e-32
3.37644e-32
1.0076e-31
6.55261e-33
1.44106e-32
6.68249e-32
5.08449e-32
4.89477e-32
3.96191e-32
8.59259e-33
4.76327e-33
5.61662e-33
3.34626e-30
2.14271e-33
2.1896e-35
1.59138e-33
9.91371e-33
1.16812e-33
1.20777e-33
1.1707e-32
7.49689e-33
7.57046e-34
7.87041e-31
1.14097e-34
2.69586e-33
2.25046e-33
2.84779e-35
1.29552e-30
5.52871e-34
3.64047e-33
2.11039e-34
2.38865e-33
2.21722e-33
4.32031e-33
5.08449e-34
3.26627e-34
2.15928e-34
2.6318e-31
2.16262e-34
3.23397e-34
1.08592e-33
4.85597e-31
1.47623e-34
9.59655e-35
1.34887e-34
2.69497e-36
7.41365e-35
3.10555e-35
3.9797e-35
2.80036e-34
4.89578e-34
3.03506e-35
5.01355e-35
6.27197e-32
3.6615e-34
1.0586e-34
1.30106e-31
3.00708e-35
1.67715e-35
1.09896e-34
6.31864e-32
6.53616e-35
4.29031e-32
3.49994e-36
3.18848e-35
2.22497e-35
3.91894e-35
4.8134e-36
1.07766e-34
1.78096e-31
1.673e-31
6.70772e-33
1.2183e-32
3.81285e-32
4.18984e-32
3.95098e-32
1.6701e-32
2.1401e-32
4.56355e-33
1.17537e-33
2.23324e-32
6.17729e-32
7.36471e-32
2.17971e-32
1.65686e-32
3.36976e-32
4.67183e-33
2.28868e-32
3.15213e-33
1.08823e-32
2.01587e-32
1.99832e-33
1.1111e-32
5.49049e-33
4.20953e-32
3.97837e-34
9.59302e-33
1.46614e-32
5.92566e-33
4.2152e-33
3.57395e-33
2.48641e-33
7.77283e-34
4.45061e-33
1.21853e-33
1.52328e-35
1.14508e-33
2.95667e-33
1.5738e-34
1.61427e-32
2.53407e-33
2.68052e-35
1.92978e-34
6.9741e-35
2.13851e-35
8.24861e-35
9.40752e-35
1.18095e-35
8.79807e-34
1.97866e-33
1.83291e-33
1.52655e-34
6.95777e-34
7.46962e-35
1.06581e-35
8.39867e-36
1.79701e-34
1.46877e-34
4.9438e-34
5.89591e-34
1.24581e-33
1.02233e-34
2.14229e-33
6.45646e-34
3.2249e-34
5.47868e-34
7.67541e-35
6.45126e-36
1.79038e-34
2.65752e-34
3.26389e-36
3.02222e-35
9.80164e-35
4.28129e-33
8.4948e-33
3.12624e-32
6.29033e-33
8.44351e-32
4.3423e-32
1.78418e-31
7.24823e-32
6.36093e-32
1.454e-33
2.48704e-33
1.9148e-33
1.24023e-33
3.67779e-32
3.57721e-34
7.67788e-32
2.98346e-32
8.99834e-34
3.6401e-34
4.28042e-33
3.63548e-32
4.94973e-34
8.62682e-33
5.90639e-33
1.57422e-32
2.03141e-32
8.59074e-33
5.32734e-35
1.44256e-34
9.76483e-33
3.28747e-33
3.47305e-33
2.99383e-33
3.4702e-34
1.16643e-33
6.26261e-35
2.57977e-35
1.37529e-36
6.07509e-34
8.10388e-34
2.44506e-34
9.2418e-35
7.97604e-35
4.15376e-34
1.41672e-35
2.35015e-33
1.70172e-33
1.71755e-35
7.2315e-34
8.75053e-34
5.14067e-34
7.22953e-35
1.45718e-35
1.26479e-34
2.59315e-34
8.59517e-34
6.50101e-35
2.1962e-34
4.57069e-37
2.71806e-34
1.54757e-35
2.81842e-35
4.88017e-34
4.09285e-34
6.31899e-35
9.33782e-35
8.06163e-35
3.26642e-34
1.45481e-35
7.3428e-35
3.80114e-35
3.27908e-34
4.35513e-35
4.43074e-37
5.16065e-31
6.49742e-32
2.5647e-34
2.05028e-33
3.61674e-32
8.50601e-34
9.45744e-34
5.04589e-32
8.0365e-33
2.14124e-32
3.13315e-32
2.18586e-32
3.01441e-34
1.30182e-33
4.00865e-33
3.0186e-32
1.14361e-32
5.62819e-33
3.51589e-32
1.20418e-32
9.53811e-34
4.51511e-34
2.5761e-32
2.49189e-33
1.18873e-32
1.89499e-32
2.17064e-34
5.66493e-33
6.50768e-34
2.10924e-34
1.01727e-32
8.44234e-34
1.89472e-33
8.36044e-35
2.44869e-34
1.74649e-33
2.01855e-33
5.07968e-33
9.77823e-33
1.66403e-33
4.40223e-33
1.23179e-33
1.25153e-35
7.5439e-35
1.16132e-33
1.41931e-33
1.64404e-33
2.59566e-34
1.21053e-33
5.1328e-34
6.29784e-34
1.36468e-34
4.42156e-34
6.63967e-34
7.10596e-34
4.74455e-34
3.17279e-35
8.39533e-35
2.91099e-34
5.39195e-34
6.04785e-34
9.34264e-35
9.99568e-36
9.28044e-36
1.51991e-34
3.29671e-34
5.16616e-34
1.28463e-36
1.07959e-34
3.57762e-34
3.3843e-35
1.13628e-34
2.73328e-35
3.09253e-34
9.81974e-32
4.31818e-33
1.67275e-31
1.22357e-31
1.07474e-33
4.52009e-33
4.05623e-33
3.89002e-32
2.81316e-32
3.15409e-33
1.18688e-33
2.83386e-33
2.07405e-33
3.16676e-32
1.34036e-32
3.97672e-33
2.17236e-32
2.54563e-32
1.77195e-34
5.59537e-33
8.62523e-35
6.25086e-34
2.11996e-33
5.14606e-33
1.79875e-32
3.95359e-33
4.99313e-33
6.2077e-33
3.96355e-33
2.09221e-34
1.2592e-33
1.6962e-33
5.34456e-34
3.561e-36
1.76335e-34
1.36342e-33
5.25023e-34
1.79219e-33
1.5436e-33
1.32327e-33
6.52424e-34
6.20174e-35
4.69168e-34
2.17939e-33
1.37557e-33
1.59706e-33
1.10701e-34
2.71132e-35
1.62329e-33
1.59176e-34
5.95285e-35
4.99681e-35
1.71121e-34
3.17168e-34
7.49015e-34
6.37164e-34
8.62713e-35
3.06222e-34
2.26107e-35
5.22323e-35
2.71053e-34
1.12349e-36
8.37563e-35
8.12832e-36
2.6905e-34
1.67265e-34
1.23583e-36
1.91708e-36
4.33117e-35
5.63341e-34
9.77163e-36
9.9174e-35
2.19572e-35
6.99259e-35
9.54253e-33
4.35097e-32
1.01099e-33
1.57072e-32
6.4239e-32
2.78268e-32
3.18229e-33
1.01068e-32
1.96505e-32
1.3716e-32
9.4442e-33
8.15784e-32
1.81067e-32
1.60555e-32
3.8108e-32
7.06274e-32
2.40527e-33
1.04165e-32
1.88281e-32
3.69357e-32
8.249e-33
1.29238e-32
1.94417e-34
5.46982e-33
5.34025e-34
4.7068e-34
5.16591e-33
2.41467e-33
3.86724e-34
1.73078e-33
1.011e-32
1.01822e-32
7.34791e-34
6.30409e-34
1.35707e-32
1.89066e-33
4.58191e-34
2.20393e-33
6.16355e-33
1.6408e-33
2.08082e-33
1.26274e-33
3.26921e-37
5.75301e-34
2.8615e-34
1.09527e-34
3.26976e-33
3.22659e-34
5.95978e-34
6.14998e-35
5.05432e-35
0
2.22849e-33
2.42117e-33
4.01741e-34
8.93449e-35
1.67489e-34
1.19357e-37
2.09444e-34
1.75979e-34
8.37554e-35
3.33088e-35
2.46621e-34
3.56959e-34
1.86006e-35
6.27e-35
5.69356e-35
4.4259e-35
8.7129e-35
1.27923e-34
2.36941e-34
2.36368e-35
4.40212e-35
2.4789e-34
2.87911e-33
5.25258e-32
1.20008e-32
4.20142e-32
2.11357e-32
3.96599e-32
3.05467e-32
1.68088e-31
1.08677e-32
5.37187e-32
2.12807e-33
4.24952e-33
1.52943e-32
1.02984e-32
4.15734e-35
2.97783e-34
2.36056e-33
2.82951e-32
4.77355e-32
3.08449e-32
2.33083e-32
1.15956e-32
1.29887e-34
1.24977e-34
9.86565e-33
1.72445e-32
9.36029e-33
1.18558e-34
2.95163e-33
8.21017e-34
2.16421e-34
4.04358e-33
1.78359e-35
1.07725e-33
8.14466e-37
9.12453e-35
2.85262e-33
5.56079e-33
5.98685e-33
3.30547e-33
2.19513e-33
9.96613e-34
2.72921e-33
8.6899e-36
1.58843e-33
3.44777e-34
6.67956e-36
6.48732e-35
4.87042e-34
7.48755e-34
6.47153e-34
1.22231e-33
1.42283e-33
1.03798e-34
1.34973e-33
1.45966e-33