/*--------------------------------*- C++ -*----------------------------------*\
| =========                 |                                                 |
| \\      /  F ield         | OpenFOAM: The Open Source CFD Toolbox           |
|  \\    /   O peration     | Version:  2312                                  |
|   \\  /    A nd           | Website:  www.openfoam.com                      |
|    \\/     M anipulation  |                                                 |
\*---------------------------------------------------------------------------*/
FoamFile
{
    version     2.0;
    format      ascii;
    arch        "LSB;label=32;scalar=64";
    class       volScalarField;
    location    "0";
    object      turbulenceProperties:L;
}
// * * * * * * * * * * * * * * * * * * * * * * * * * * * * * * * * * * * * * //

dimensions      [0 1 0 0 0 0 0];

internalField   nonuniform List<scalar> 
11040
(
0.000289043
0.000292566
0.000293447
0.00029517
0.000297593
0.000300171
0.000302554
0.000304582
0.000306223
0.000307506
0.00030847
0.000309168
0.000309662
0.000310005
0.000310253
0.000310455
0.00031065
0.000310878
0.000311163
0.000311536
0.000312006
0.000312701
0.000313689
0.000314806
0.000315961
0.00031716
0.000318391
0.000319651
0.00032093
0.000322226
0.000323532
0.000324842
0.000326154
0.000327459
0.000328752
0.000330034
0.000331303
0.000332545
0.000333763
0.00033495
0.000336114
2.28489e-11
1.67342e-10
6.32344e-11
7.8826e-12
7.31939e-12
1.04928e-10
1.03003e-10
4.02577e-11
9.33266e-11
0
1.5117e-10
9.72464e-12
1.48605e-11
3.02503e-10
1.04512e-10
9.08279e-11
2.30883e-10
7.35236e-11
6.62059e-11
5.9838e-11
1.55701e-10
1.96466e-11
1.38342e-11
4.14331e-12
4.20817e-12
3.076e-13
2.12852e-11
6.01101e-11
5.86641e-11
1.35904e-11
4.95265e-11
6.19891e-11
6.19184e-11
5.89213e-11
6.37586e-11
1.13902e-11
5.91418e-11
6.76544e-11
7.48572e-11
3.97178e-12
5.77781e-11
1.56904e-11
1.4865e-11
8.56516e-11
1.09408e-10
5.16715e-12
4.12069e-11
7.7244e-11
3.08329e-15
1.28692e-10
1.62664e-10
1.15133e-10
9.3504e-11
8.70517e-11
7.91498e-11
1.41729e-13
7.01117e-11
2.50729e-11
6.76669e-12
5.2749e-11
1.29836e-10
2.11458e-12
1.15302e-10
1.18859e-10
3.07848e-12
1.45784e-11
1.15411e-10
5.46801e-11
4.46542e-11
1.1941e-10
2.2659e-13
4.71475e-11
8.57522e-12
3.67769e-11
2.29036e-13
5.77042e-11
4.74717e-11
2.3994e-11
4.51155e-11
4.89731e-11
1.21201e-10
5.79369e-11
8.1771e-11
7.75109e-11
8.1303e-11
2.0796e-12
2.24708e-14
2.47143e-11
1.24946e-10
3.81091e-11
1.90836e-11
9.24411e-11
1.05299e-10
8.55275e-11
1.5827e-11
6.60451e-11
5.29172e-11
6.0296e-12
4.82664e-11
1.07437e-12
4.04548e-11
9.44715e-11
8.72188e-11
8.95934e-11
8.54935e-11
6.72106e-12
9.03521e-11
2.48121e-10
7.56308e-12
8.94306e-11
8.67743e-11
3.23938e-11
3.16424e-11
3.76812e-11
6.48648e-12
3.27596e-11
4.05379e-11
3.2731e-11
4.32569e-11
1.76592e-11
7.42561e-12
7.5171e-12
2.99998e-11
5.04247e-11
7.0946e-11
8.0148e-11
2.7108e-11
2.19951e-11
8.73087e-11
2.93585e-11
1.50693e-11
6.45036e-11
3.01431e-14
9.88058e-15
5.19223e-11
7.23631e-13
5.31366e-12
4.14743e-11
3.87321e-11
3.60244e-11
3.04254e-11
5.22755e-14
4.46714e-13
4.63499e-12
1.1529e-11
6.69207e-12
5.63122e-12
5.68194e-12
6.28135e-11
6.31345e-11
1.60162e-11
2.51679e-11
2.19565e-11
1.70751e-12
4.9619e-12
4.73985e-12
2.53199e-11
1.32799e-11
2.23015e-11
0
4.22558e-11
7.91959e-12
2.71269e-11
1.1301e-14
1.61188e-11
3.88406e-11
4.73842e-11
5.42625e-11
1.77e-11
4.87367e-11
6.01938e-11
4.81648e-11
2.85002e-11
4.84127e-11
1.18089e-10
1.01412e-10
2.7238e-12
3.15793e-11
7.02539e-12
2.8912e-11
3.00755e-11
4.77125e-12
1.46379e-12
5.23892e-11
3.53961e-12
4.98408e-11
3.76222e-12
2.49591e-12
4.89936e-11
3.56369e-12
5.22047e-11
5.00197e-11
1.78548e-11
5.89955e-12
3.50175e-12
1.58711e-11
1.62647e-11
5.21104e-11
2.73492e-11
1.88112e-11
1.976e-11
3.90706e-11
1.80362e-11
1.83415e-11
1.01162e-11
9.53682e-13
6.45618e-11
3.32091e-11
3.30155e-11
3.25108e-12
4.04665e-11
3.65939e-11
8.69526e-12
6.75746e-12
7.48323e-12
5.93818e-12
7.61209e-11
1.34474e-13
2.33161e-11
2.19444e-11
5.61223e-11
1.76957e-11
3.37035e-12
3.03684e-12
9.83131e-13
1.01974e-12
4.18915e-12
5.2524e-12
5.31663e-12
1.00038e-10
3.93779e-11
3.64008e-11
3.78227e-11
2.65743e-12
3.59438e-11
1.34814e-11
1.26244e-11
1.09489e-11
2.57327e-11
1.76201e-11
1.45107e-11
1.17716e-11
3.51461e-11
1.71079e-11
2.29888e-11
1.00412e-12
1.73265e-12
2.97223e-11
2.9286e-11
2.23952e-11
1.60409e-11
1.24224e-11
1.47956e-11
3.72624e-13
2.34188e-11
1.96817e-11
2.40855e-11
4.62042e-12
1.0333e-11
1.7491e-11
1.81557e-11
4.04281e-11
1.23553e-11
5.96369e-12
1.01496e-11
8.03979e-12
5.41537e-13
2.58531e-11
3.87369e-12
2.86953e-11
4.6313e-12
3.52691e-12
1.83054e-11
3.28941e-11
1.08408e-11
1.26792e-11
1.0007e-11
2.32005e-11
1.16224e-11
4.62697e-12
3.216e-12
3.2144e-12
9.15282e-12
2.49131e-11
1.03337e-11
8.96344e-18
4.06176e-13
1.16705e-16
1.59297e-12
2.12064e-11
1.15319e-11
1.05953e-11
0
6.62475e-11
2.32368e-11
4.37759e-11
3.71543e-12
7.77327e-14
7.73896e-14
3.3602e-11
2.70104e-11
1.97325e-11
1.25956e-11
3.40103e-12
2.36631e-11
1.69129e-12
1.96583e-11
1.70832e-11
2.03497e-12
5.5296e-12
2.37184e-13
2.18394e-11
2.22731e-11
6.25815e-12
2.28001e-11
1.91306e-11
1.38773e-11
1.63491e-11
7.43485e-12
7.52313e-12
7.78497e-12
7.32603e-12
7.9699e-12
6.85318e-12
4.10403e-14
6.16535e-12
6.10316e-12
3.01104e-13
9.22638e-12
7.73651e-13
1.81556e-11
7.11092e-12
1.56104e-11
3.71269e-11
1.44012e-11
6.48221e-12
1.44021e-11
1.58527e-13
1.18637e-11
1.10454e-11
1.45182e-11
3.16059e-11
6.60752e-11
2.92834e-12
1.68668e-11
3.6193e-12
1.45581e-11
1.49447e-11
1.42657e-12
1.44733e-11
1.28446e-11
1.49515e-11
1.38394e-11
1.01956e-11
1.18999e-11
4.09658e-12
1.74983e-11
2.51538e-12
5.1893e-12
1.53325e-11
6.73636e-12
4.9027e-12
1.78477e-11
7.78118e-14
1.15847e-11
1.52489e-11
1.04525e-12
6.32852e-12
2.42498e-11
5.6899e-12
1.32658e-11
1.29516e-11
1.81065e-11
4.40811e-12
1.06989e-11
4.63707e-12
9.30172e-12
7.18629e-12
9.98696e-12
1.67603e-12
6.92183e-12
1.62855e-11
3.57271e-12
1.35152e-12
4.0541e-13
4.26729e-12
3.26814e-13
1.50258e-11
1.21257e-11
4.15723e-12
1.57798e-12
5.76202e-12
2.12652e-12
1.20382e-11
1.74933e-12
1.7225e-11
1.32659e-11
6.38262e-12
7.65744e-13
2.24294e-13
3.03103e-12
6.35501e-12
1.29418e-12
1.10199e-11
1.28481e-11
9.20933e-12
8.79523e-12
8.11564e-13
1.11116e-11
8.53173e-13
6.10012e-12
3.80427e-12
8.05552e-12
2.29696e-12
1.24002e-11
3.33995e-12
2.80194e-12
3.3206e-12
1.06817e-11
1.07591e-11
1.73558e-11
1.54772e-12
1.51254e-11
1.19697e-11
5.06214e-12
5.5054e-12
1.32525e-12
1.08678e-12
3.9648e-12
3.86542e-12
2.02564e-12
7.71184e-12
4.41933e-12
1.73298e-11
1.06391e-11
1.42891e-11
3.98708e-12
8.22992e-12
2.03148e-11
3.20043e-12
5.70548e-13
7.24573e-12
7.52292e-12
2.91792e-12
4.88114e-12
1.06115e-11
2.17016e-11
4.70851e-12
7.6668e-12
1.13163e-11
1.30926e-11
1.38752e-11
4.25098e-12
7.85791e-13
6.18944e-13
6.92882e-12
6.73819e-12
4.07041e-12
1.70566e-11
7.84218e-12
5.1048e-12
8.05087e-12
1.99116e-11
1.17327e-11
3.43786e-12
7.99584e-12
7.85016e-12
5.63055e-12
6.03309e-12
4.05986e-12
2.54807e-11
1.38012e-13
2.30545e-11
7.01125e-12
2.01147e-13
1.85302e-12
8.57017e-12
5.05646e-13
4.61349e-12
9.42859e-12
1.24348e-12
9.39169e-12
1.80343e-11
7.01383e-13
6.78335e-12
7.61042e-12
5.46931e-12
1.48826e-11
1.30182e-11
4.86741e-12
7.73919e-13
1.04413e-11
8.60728e-12
5.42286e-12
2.40292e-12
2.26883e-12
7.10751e-12
2.19141e-12
1.08262e-11
4.98246e-12
1.27921e-12
1.04746e-11
7.32871e-12
4.85636e-12
1.1227e-12
3.12211e-12
1.26137e-12
5.41948e-12
5.67425e-13
5.62843e-12
1.16135e-11
1.11263e-11
2.9758e-12
4.94263e-12
4.63498e-12
3.1796e-12
3.64953e-12
3.27198e-12
4.84129e-12
1.3672e-12
4.30147e-12
4.37744e-12
3.36781e-12
6.91785e-13
3.84552e-12
5.74976e-12
1.18955e-11
2.66214e-12
5.12291e-13
1.96572e-12
4.46748e-12
1.03409e-12
3.09152e-13
9.1771e-14
7.8733e-12
4.71106e-12
4.6961e-12
8.87894e-13
4.13045e-13
2.68425e-12
2.05797e-13
9.53066e-12
5.06025e-12
1.08127e-11
1.22479e-11
4.10778e-12
8.18545e-12
2.14014e-12
7.56536e-12
7.36345e-12
8.29763e-12
1.67294e-12
1.99113e-13
9.34339e-12
2.60857e-12
2.73508e-12
1.57345e-12
2.80043e-12
2.19286e-12
4.76364e-12
8.43389e-12
5.10888e-12
6.37629e-12
4.01974e-12
3.15156e-13
8.51942e-12
4.70463e-12
4.84595e-12
1.34147e-11
1.69904e-11
1.4856e-11
6.10894e-12
3.01169e-12
1.07179e-12
2.13915e-12
4.94885e-12
2.77831e-12
1.65847e-12
3.72605e-12
1.73127e-12
4.34728e-12
6.5819e-12
3.70703e-12
3.97351e-12
1.47108e-12
2.75011e-12
4.97069e-13
2.70177e-12
4.60118e-12
9.66871e-12
1.42357e-11
9.36864e-12
7.47607e-13
2.04466e-12
3.88999e-12
5.76995e-12
3.44579e-12
8.93462e-13
4.71237e-12
1.25707e-11
1.84768e-11
1.51361e-11
4.58972e-13
9.82333e-12
4.9176e-12
2.45672e-12
1.223e-11
1.27756e-11
5.04502e-12
3.64187e-13
8.5905e-12
9.46839e-12
7.08419e-12
3.39483e-12
0
3.57073e-16
2.03655e-12
1.65805e-12
2.90791e-12
3.34433e-12
1.14154e-12
3.47952e-12
3.84313e-12
8.08696e-13
6.29697e-12
4.9713e-12
8.78923e-13
2.73344e-12
5.68394e-12
8.74787e-12
2.45824e-12
6.09685e-12
6.44148e-12
2.68595e-12
1.15533e-12
2.77563e-12
6.05773e-12
7.29253e-12
8.81783e-12
5.32911e-13
4.29854e-12
1.301e-12
1.0197e-13
1.98941e-12
7.88178e-12
2.01327e-11
1.02339e-11
4.79033e-12
4.14389e-12
1.84214e-12
4.29622e-12
8.05253e-12
1.03731e-11
6.08048e-12
2.29702e-12
5.61119e-13
2.31607e-12
2.582e-12
2.89392e-12
2.66789e-12
1.17613e-12
1.47968e-12
6.07566e-12
1.37693e-11
3.13837e-12
7.45138e-12
3.41496e-12
3.38558e-12
1.30759e-12
3.99573e-12
1.18539e-11
1.25308e-12
4.58766e-12
3.4015e-12
6.38587e-13
5.77654e-12
3.49796e-12
1.37599e-12
2.37841e-12
2.16429e-13
2.75758e-12
7.96564e-13
4.1954e-12
4.54668e-12
2.34567e-13
2.56727e-13
4.02195e-13
5.28495e-12
4.43443e-12
8.57232e-13
1.18525e-13
4.2817e-12
2.32737e-12
1.05556e-11
4.27424e-12
4.03001e-13
1.65478e-13
1.63927e-12
2.50147e-12
1.22384e-12
1.26079e-12
5.26744e-13
1.79507e-12
1.05502e-12
3.22885e-12
5.41529e-13
1.35507e-12
4.28295e-12
1.23546e-13
4.04272e-12
1.55223e-12
3.66579e-12
5.27655e-13
2.49286e-12
3.78725e-12
1.38787e-12
1.32456e-12
3.06075e-12
4.82182e-12
5.96645e-13
5.04614e-13
6.71709e-12
2.21375e-12
1.55816e-12
1.23148e-12
2.59057e-12
7.20972e-13
5.31602e-13
6.10624e-13
2.10673e-12
6.91849e-13
2.58291e-13
2.07416e-12
2.10538e-12
8.78371e-13
1.94598e-13
7.36e-12
1.53349e-11
8.31348e-13
1.86307e-12
2.3632e-13
2.05836e-12
8.86932e-13
2.61777e-12
1.33946e-12
3.12524e-12
4.90726e-12
3.0373e-12
9.86089e-13
1.44475e-12
4.57316e-12
1.54939e-12
3.97718e-12
1.89249e-13
2.00377e-13
8.57505e-13
2.14161e-13
2.38759e-12
2.24032e-12
1.79412e-12
2.27848e-12
2.37766e-12
2.87481e-12
1.11678e-12
6.7487e-12
1.15632e-11
6.72782e-13
6.86207e-13
5.62169e-12
3.72369e-12
3.37551e-13
1.54164e-11
2.5294e-11
3.09411e-12
8.05955e-13
2.03703e-12
6.53711e-12
8.5341e-12
1.32253e-11
5.19311e-14
1.00756e-12
3.25692e-13
1.55894e-12
8.24077e-13
3.22198e-13
8.60694e-13
4.47842e-13
6.96166e-13
1.68792e-12
3.22006e-12
2.47239e-12
5.64338e-13
4.55501e-12
2.11766e-12
5.28562e-13
1.30953e-12
3.073e-12
2.74929e-12
5.39262e-12
4.74995e-12
5.92755e-12
6.45107e-13
4.51547e-12
3.75113e-12
1.94847e-12
3.90161e-12
7.18966e-12
1.03505e-11
5.62691e-12
3.98662e-12
5.08921e-12
7.79339e-12
2.43994e-12
1.14232e-12
1.77449e-11
1.64273e-11
5.88293e-12
1.03372e-12
1.00803e-12
4.35524e-12
7.94551e-14
3.42275e-14
6.34153e-14
5.44675e-13
3.15879e-13
2.25563e-12
5.94546e-13
2.48396e-12
2.5716e-12
1.23193e-12
1.11843e-12
1.90305e-12
9.90521e-14
2.42349e-12
9.53056e-13
6.49766e-13
1.05354e-12
7.3506e-13
8.80589e-13
1.93464e-12
1.30602e-12
1.22405e-13
1.20967e-12
2.19619e-12
3.31843e-12
2.08231e-12
1.34567e-12
9.50629e-12
9.58448e-13
4.31787e-12
2.95725e-13
3.68697e-12
1.01614e-12
5.52793e-13
2.82413e-13
2.84982e-13
1.13448e-12
7.58636e-12
1.44992e-11
1.78678e-12
7.18092e-13
8.15923e-13
3.26332e-13
1.07957e-12
1.60396e-12
4.54955e-13
1.61978e-12
9.98109e-13
1.81083e-12
4.43391e-13
2.49353e-12
7.25759e-14
9.30662e-13
5.95791e-12
3.51241e-12
2.88732e-12
4.0228e-13
1.25189e-12
2.11251e-12
2.29686e-12
6.16873e-13
7.77657e-13
5.31576e-12
4.12034e-12
4.04957e-13
3.20357e-12
1.37248e-12
1.6261e-12
5.65624e-12
7.54175e-13
1.261e-11
4.31378e-12
8.62832e-13
2.48129e-12
4.65527e-12
7.337e-12
1.12727e-12
5.73961e-12
3.32647e-12
2.19877e-12
5.23554e-12
2.01926e-16
4.90638e-13
1.22103e-12
1.87271e-12
6.307e-13
3.37279e-12
8.17432e-13
3.31876e-14
7.4793e-13
6.96959e-13
1.40954e-12
8.0414e-13
1.97478e-12
8.04806e-13
2.23367e-12
1.97561e-12
1.50615e-12
7.72996e-13
4.86557e-13
8.74258e-13
1.79187e-13
7.48807e-13
5.04715e-12
1.20698e-12
4.54547e-13
1.35967e-12
1.19731e-12
1.32868e-12
2.50321e-12
2.68603e-12
3.51151e-12
2.01997e-12
2.70576e-13
5.36014e-12
4.59478e-13
1.23504e-13
1.74483e-12
3.47503e-12
8.30401e-12
6.15173e-14
5.44945e-13
9.75583e-13
4.53529e-13
1.28991e-13
9.87763e-13
2.45531e-13
4.98356e-13
6.65328e-13
1.94526e-12
2.98902e-13
2.60889e-12
3.35516e-12
2.80962e-13
2.74911e-14
3.26884e-13
2.83142e-12
1.39833e-12
1.48995e-13
1.09114e-12
3.52083e-12
2.7238e-12
4.51801e-13
1.6731e-13
7.34725e-13
1.84181e-12
2.40013e-13
1.01902e-12
3.02859e-13
1.1916e-12
9.98325e-13
3.55684e-12
1.09749e-12
1.47963e-12
3.57646e-12
1.76799e-13
2.19161e-12
3.01119e-12
4.56261e-13
2.71537e-13
5.60623e-12
1.92503e-13
9.6396e-13
8.03139e-17
5.90332e-13
8.41975e-13
7.7274e-13
9.18351e-13
2.4033e-13
6.42707e-13
8.87963e-13
3.25476e-13
6.41759e-13
1.99156e-12
2.12469e-13
8.98487e-13
1.99092e-12
5.24757e-13
4.65501e-13
7.99459e-13
2.84938e-12
1.36405e-12
3.05397e-13
1.74314e-12
2.1697e-12
2.99668e-12
5.78001e-12
1.26657e-12
2.49373e-12
1.30419e-12
5.82531e-13
1.02081e-12
2.3381e-12
3.39545e-12
4.6396e-12
2.95918e-12
5.38497e-12
1.32119e-12
2.51047e-12
7.36878e-12
8.08584e-12
1.91533e-13
2.82955e-12
1.1871e-12
3.92455e-13
4.43908e-13
2.50985e-13
1.31333e-13
6.6185e-14
5.13547e-13
4.1896e-13
4.44075e-13
6.63819e-13
1.95e-13
9.42383e-13
8.66924e-13
1.18986e-12
4.88517e-13
1.89241e-12
3.04588e-13
7.04382e-13
2.72276e-12
3.49766e-12
3.95748e-13
4.34532e-13
6.18447e-13
5.06323e-13
1.33268e-12
5.4554e-13
1.39526e-12
1.70983e-12
3.32496e-12
4.8921e-14
3.27543e-12
2.64828e-13
4.60149e-12
4.40572e-13
1.99178e-12
2.05638e-12
3.02201e-13
7.6578e-13
2.25925e-12
5.14045e-13
2.70671e-12
6.71678e-14
4.51014e-12
0
8.55156e-14
4.29977e-14
2.18898e-14
6.22811e-13
6.17337e-13
7.99981e-13
1.97219e-13
3.05818e-13
9.38899e-13
1.62286e-13
1.25714e-12
1.05657e-12
3.23471e-13
2.00158e-12
9.03938e-13
7.48384e-14
1.68192e-12
1.2835e-12
4.04977e-13
1.22626e-12
3.50585e-13
9.14607e-13
4.62411e-13
5.79836e-13
2.2886e-12
5.75589e-13
7.18402e-13
3.25e-13
5.21597e-13
1.35888e-12
2.1068e-12
4.56225e-12
2.00526e-12
3.45043e-12
1.19567e-12
1.99814e-12
3.7772e-12
4.23045e-12
9.67677e-13
2.79329e-13
8.10537e-13
4.92818e-13
1.03733e-13
2.09153e-14
2.60211e-13
7.64751e-14
3.86066e-13
8.36624e-13
3.50372e-13
4.25585e-14
3.55528e-14
4.69191e-13
2.05043e-13
3.62411e-13
1.82296e-13
3.43759e-13
5.87273e-13
1.81724e-13
3.5064e-13
1.06174e-12
7.82363e-13
8.20822e-13
3.42053e-13
3.92807e-13
2.45903e-13
2.2228e-13
4.3134e-13
3.16836e-12
2.07238e-12
2.60923e-12
2.81042e-13
3.99606e-13
2.48884e-13
5.84532e-13
6.15045e-13
2.83222e-13
1.10233e-12
8.94876e-13
4.94876e-13
1.11592e-12
3.2066e-12
5.71234e-13
4.87237e-14
2.79795e-13
2.96436e-13
4.79453e-14
1.07778e-12
5.38313e-13
2.82515e-13
4.14671e-13
4.11435e-13
1.31027e-12
9.8641e-13
1.44175e-13
1.56313e-13
6.45729e-13
6.13625e-14
2.69438e-13
5.59647e-13
8.87653e-13
3.68782e-13
1.25589e-12
6.04873e-14
9.05479e-13
6.49048e-13
3.2352e-13
9.62351e-14
8.75317e-14
3.88164e-13
7.71714e-14
1.06166e-12
1.08361e-12
2.67298e-12
3.32668e-12
3.46561e-12
3.78059e-12
9.37073e-13
1.21166e-12
3.04347e-12
3.40511e-13
5.24198e-14
2.99105e-12
1.96089e-14
3.75745e-14
6.56549e-13
2.36083e-13
1.26993e-13
3.73993e-13
1.94267e-14
4.93186e-13
2.39653e-14
3.99934e-13
4.41001e-13
1.49824e-12
1.46659e-12
6.62335e-13
7.24341e-13
1.40276e-12
4.88302e-13
1.22812e-12
7.96337e-13
3.19662e-13
5.26636e-14
9.42364e-13
1.71958e-12
3.01877e-12
1.58182e-12
1.59719e-13
4.60704e-13
3.15697e-13
1.16398e-12
1.28746e-12
1.58705e-12
3.48148e-12
2.4023e-13
9.07706e-13
1.87221e-12
3.59905e-12
2.48395e-12
4.82355e-13
1.4305e-13
1.1705e-12
1.77707e-13
3.74405e-13
1.51559e-13
6.42992e-13
6.12124e-13
2.42567e-13
1.38287e-13
5.76022e-13
2.82819e-13
5.85849e-13
2.97725e-14
5.50021e-13
1.76773e-13
4.15122e-13
1.72243e-13
3.46093e-13
2.15085e-13
4.52673e-13
3.56007e-14
1.37022e-12
2.26682e-12
1.43538e-12
4.93678e-13
3.97522e-13
8.71526e-13
6.52683e-13
2.25341e-13
9.4473e-13
2.84739e-12
1.54647e-13
3.25187e-13
2.82393e-12
2.26488e-12
1.19183e-12
7.45715e-13
1.02298e-12
2.48013e-13
2.15801e-12
1.82668e-12
2.32742e-12
1.35413e-12
5.67804e-12
3.63801e-13
9.85648e-15
3.65301e-13
4.77901e-13
8.48373e-14
4.32178e-13
4.78596e-13
0
2.54632e-13
2.49412e-13
7.2111e-13
1.17817e-13
4.485e-14
3.84132e-13
1.03038e-12
8.39729e-13
2.55362e-13
1.5698e-12
2.50985e-13
7.58226e-13
7.98308e-13
2.46223e-12
2.08346e-12
9.83279e-13
1.64278e-13
1.13406e-12
3.16177e-12
3.40848e-12
1.01496e-13
1.2401e-12
9.02222e-13
1.94438e-14
6.33557e-13
1.27434e-12
5.36158e-13
1.9488e-12
5.24754e-13
3.19645e-12
2.92111e-12
1.36415e-12
4.82862e-12
4.98578e-16
2.85466e-13
2.78898e-13
2.98725e-13
4.86741e-13
9.14462e-14
3.61962e-13
1.71117e-13
0
3.88175e-13
9.16687e-14
2.57704e-13
2.79507e-13
2.30813e-13
5.90115e-13
1.36644e-13
4.5327e-14
1.33562e-12
2.44364e-12
1.0857e-13
8.52463e-13
5.83836e-13
3.56548e-13
1.33024e-12
1.60004e-14
1.32222e-12
2.47933e-12
1.75706e-13
1.48999e-13
1.12004e-13
1.26543e-13
8.14427e-14
5.12213e-14
4.7817e-13
3.76665e-13
1.40898e-12
3.35824e-13
3.68983e-12
1.10509e-12
4.95853e-13
4.13547e-12
1.65384e-13
2.11538e-13
2.33301e-13
1.42927e-14
8.95603e-14
2.48919e-13
3.40689e-13
6.70348e-14
2.51336e-13
4.66814e-13
9.87546e-13
2.9009e-13
8.83849e-14
3.70267e-13
1.858e-13
5.95229e-13
5.9086e-14
3.26977e-13
1.13919e-12
4.9434e-13
3.02746e-13
5.64556e-13
4.48764e-13
1.10086e-13
1.81213e-13
1.29089e-13
7.88929e-14
6.42162e-13
3.54832e-14
1.14622e-12
1.81336e-13
7.87752e-13
5.94678e-13
4.83573e-14
3.39456e-13
3.1316e-12
1.69831e-12
4.3221e-13
2.11104e-12
8.92039e-14
6.93072e-16
6.32489e-15
1.96309e-13
1.89533e-13
5.35982e-13
2.59939e-13
1.41453e-13
1.59615e-13
1.37727e-13
1.80689e-13
4.32355e-13
1.34627e-13
1.21046e-13
6.22486e-14
1.60017e-13
6.71127e-13
6.79587e-13
5.9161e-13
3.5775e-13
1.06857e-13
1.92668e-13
7.86039e-13
3.16484e-14
4.32376e-13
2.60159e-13
6.2072e-14
6.51429e-13
4.11548e-13
5.27075e-13
6.28627e-13
2.98489e-13
2.67488e-14
1.79744e-13
2.5974e-13
4.50414e-13
1.6659e-12
2.14619e-13
6.16971e-12
3.43712e-12
3.3167e-12
1.89047e-12
8.22122e-14
7.36585e-15
9.40871e-15
3.65275e-13
1.47555e-13
3.6465e-14
9.09276e-14
4.58866e-14
1.87218e-13
9.6974e-14
1.49096e-13
6.89578e-14
1.5091e-13
2.95454e-13
7.08984e-13
8.72666e-15
1.36593e-13
3.02486e-13
7.95968e-15
3.97152e-13
5.60184e-13
4.21619e-13
6.14972e-13
6.01481e-14
3.18439e-13
1.21135e-12
2.40215e-12
4.47776e-12
7.83817e-13
1.0001e-12
7.14943e-14
1.35946e-12
2.82562e-13
1.29546e-12
1.23846e-12
2.14801e-13
5.05519e-13
1.39955e-12
1.34247e-12
2.30342e-12
2.69857e-13
3.63193e-13
6.51249e-14
7.34823e-14
4.14019e-14
8.29737e-14
1.79447e-13
1.45586e-13
0
7.99014e-15
2.04542e-13
1.51759e-13
9.85813e-14
5.14549e-13
1.68745e-13
5.79117e-14
1.34482e-13
3.06585e-13
2.77684e-13
1.83751e-14
1.3178e-13
1.08204e-12
7.70069e-13
2.99064e-13
3.27458e-13
4.69012e-13
3.91409e-13
7.45012e-13
7.57114e-13
2.62084e-13
1.28784e-12
3.62404e-12
1.78129e-12
1.47608e-12
5.07291e-13
1.58406e-12
1.19933e-12
3.36213e-13
2.38711e-12
3.57494e-12
3.25025e-13
1.40609e-12
2.29422e-12
1.70017e-13
1.47164e-14
7.09387e-15
7.82477e-14
2.87426e-14
1.15054e-13
6.17123e-14
1.43117e-13
3.50034e-13
7.69142e-14
2.50524e-13
1.84465e-14
1.75e-13
1.35104e-13
1.56114e-13
5.78135e-13
2.54269e-13
1.24459e-13
3.94541e-13
6.74447e-13
2.15767e-13
4.03069e-13
1.13092e-12
1.01484e-12
3.53451e-14
3.20305e-13
1.78979e-13
2.34386e-13
2.16591e-13
1.56779e-12
1.46609e-12
1.45972e-12
5.14914e-14
5.23853e-14
1.85498e-13
4.32241e-13
1.87445e-13
6.26329e-13
3.89901e-13
4.91877e-13
2.08744e-12
1.32913e-13
7.07524e-15
1.76047e-13
1.03962e-13
5.27299e-14
5.43787e-14
1.58356e-13
3.15666e-13
7.54685e-14
2.53851e-14
6.89944e-14
6.32571e-14
1.22594e-13
3.28736e-13
2.79778e-14
8.48096e-14
1.77643e-13
1.94056e-13
1.1586e-13
7.62031e-14
4.32763e-13
1.71176e-13
3.59094e-13
8.64615e-14
1.60454e-13
2.24803e-13
3.41784e-13
1.58426e-13
1.7469e-12
1.13399e-12
7.19518e-13
3.40996e-13
1.15501e-12
3.90836e-13
1.77557e-13
1.70073e-12
2.15149e-13
4.08217e-13
7.96169e-13
4.57547e-13
4.55805e-14
6.18928e-14
1.26301e-13
1.45508e-13
1.63881e-13
9.43797e-14
1.01081e-13
2.29245e-13
5.89071e-14
1.32916e-13
7.58641e-14
1.10093e-15
1.21768e-15
2.03937e-13
1.0544e-13
1.68153e-13
3.37265e-14
2.22075e-13
1.07523e-13
2.52211e-13
1.32074e-13
4.1271e-13
6.67169e-13
1.93259e-13
1.7367e-13
5.57601e-13
4.53644e-13
1.20534e-12
1.17999e-12
5.11298e-13
6.80507e-13
8.22182e-14
1.27954e-13
4.70067e-12
9.64904e-14
2.36233e-12
1.20205e-13
2.18363e-12
2.75127e-12
1.02374e-12
1.89956e-13
4.59124e-16
6.23308e-15
3.64794e-14
4.38257e-14
1.23983e-13
1.87902e-13
1.17405e-14
9.36292e-15
9.84093e-14
2.71117e-13
1.55322e-14
8.06234e-14
1.1021e-13
8.09963e-14
5.05741e-14
2.46083e-13
3.93751e-14
3.00888e-14
7.18338e-14
2.08686e-13
8.20505e-14
3.31675e-13
1.65705e-13
1.04719e-13
2.00536e-14
3.55535e-13
6.61237e-15
1.1096e-12
1.35714e-12
9.59273e-13
1.35967e-13
4.11748e-13
2.43227e-13
1.04327e-12
2.8155e-13
1.59734e-13
1.42779e-12
2.16395e-14
9.9785e-13
1.70529e-12
6.9868e-14
3.85574e-12
8.69564e-14
1.00487e-13
1.29968e-13
3.80551e-14
1.4681e-14
7.47215e-15
7.63666e-14
1.99182e-13
4.73734e-14
6.67552e-14
4.19728e-14
3.14431e-14
2.78557e-13
5.24512e-13
4.3393e-14
2.52155e-14
4.03267e-13
2.54408e-13
2.2328e-13
6.80485e-14
9.91171e-13
1.51964e-13
8.2408e-13
1.36512e-13
4.09216e-13
8.78757e-14
7.43266e-13
1.61374e-12
1.25826e-12
3.97188e-13
7.44182e-14
1.13493e-12
2.41795e-12
7.50709e-16
2.27285e-13
2.11686e-12
1.32154e-12
3.68303e-12
2.56559e-12
4.97417e-13
3.43832e-12
3.03913e-14
1.39405e-14
1.2209e-14
8.7011e-14
2.51179e-14
1.04735e-13
1.26799e-13
5.02301e-14
8.64972e-14
2.81014e-13
2.11112e-13
8.40881e-14
1.00262e-13
6.0982e-14
1.09877e-13
1.43123e-13
2.18427e-13
2.14855e-13
1.26819e-13
4.00314e-14
1.11653e-13
1.03892e-13
7.17618e-14
1.46422e-14
5.61803e-14
1.30197e-12
1.48826e-13
5.18102e-13
3.66171e-13
6.09922e-13
4.38175e-14
1.08696e-12
2.46363e-13
2.11435e-12
2.48514e-12
2.7707e-12
2.81791e-13
3.94582e-14
3.47244e-13
3.89988e-13
3.1289e-12
2.89497e-15
4.93481e-14
5.73783e-14
1.03914e-13
7.38022e-14
2.10793e-14
1.02267e-13
5.09599e-14
9.77391e-15
4.00967e-14
6.86407e-14
4.28309e-14
7.44707e-14
6.21802e-14
1.24887e-13
1.06073e-13
3.28385e-13
3.63878e-13
2.36001e-13
3.75564e-14
3.9928e-14
3.30618e-13
1.01272e-14
8.26016e-15
5.20513e-13
2.60158e-14
5.08626e-14
1.93742e-12
3.00461e-13
3.42595e-14
1.68121e-13
7.49606e-13
4.34157e-13
1.91496e-14
3.14127e-13
1.36226e-12
9.14986e-13
1.42998e-12
2.02764e-13
4.64694e-13
2.92224e-12
2.26339e-15
1.43982e-14
3.44548e-14
3.7291e-15
7.51448e-14
8.64686e-14
1.9775e-14
2.31989e-14
4.07165e-14
2.28364e-13
4.86826e-14
4.9805e-14
1.22246e-13
1.68336e-14
2.10375e-13
5.99428e-14
4.29297e-13
3.27252e-13
4.7733e-13
3.63262e-13
1.56422e-13
7.06311e-15
6.91071e-15
2.3622e-13
8.78354e-14
1.55288e-13
2.4723e-13
4.47872e-15
4.23422e-13
8.28863e-13
5.67334e-13
7.213e-13
1.83842e-12
2.51186e-14
2.66994e-13
1.86787e-12
4.57442e-13
4.35454e-13
4.48103e-12
2.1029e-13
2.73555e-12
2.10463e-14
9.20709e-14
9.58655e-14
5.00111e-14
9.96451e-14
2.60745e-14
3.34884e-14
3.14069e-14
3.48258e-14
5.63194e-14
1.05024e-13
4.9231e-15
6.16297e-14
1.4564e-14
2.98533e-14
1.04865e-13
1.19739e-13
5.41461e-14
2.14214e-13
3.78628e-13
1.15873e-13
4.23399e-13
4.67976e-13
4.20846e-13
9.84225e-16
6.55387e-13
8.22594e-13
1.87673e-13
5.23534e-14
4.9176e-14
1.12333e-12
1.42264e-12
1.67147e-13
1.18126e-13
5.60478e-13
1.49379e-13
4.31082e-13
6.67306e-13
1.14206e-13
2.35732e-12
7.5249e-12
6.37975e-14
7.10774e-14
8.60646e-14
1.36098e-14
4.55421e-14
4.81599e-15
6.1924e-14
6.513e-14
4.89883e-14
5.73228e-14
4.92209e-14
6.72218e-14
2.88361e-14
5.70081e-14
9.27165e-14
1.34973e-14
5.21431e-15
1.76409e-15
3.44759e-14
5.51451e-14
4.45733e-13
1.57512e-13
2.71356e-14
1.318e-13
5.98468e-14
1.04529e-13
4.78941e-13
3.24307e-13
1.47139e-12
8.30333e-13
1.49396e-13
3.80354e-13
1.78818e-15
4.45451e-13
1.09196e-13
7.43421e-13
3.49962e-12
4.49455e-12
1.33923e-12
9.68453e-13
8.47439e-14
3.62779e-12
1.10969e-12
1.83828e-13
5.78304e-13
4.84091e-12
3.32304e-12
3.00409e-12
6.8208e-12
8.78372e-13
1.58627e-12
5.0127e-12
4.0837e-12
3.96887e-12
3.38685e-12
1.07637e-12
6.91508e-13
7.82482e-13
9.436e-11
3.79831e-13
1.22079e-14
3.03878e-13
1.19824e-12
2.40981e-13
2.4709e-13
1.35738e-12
9.71692e-13
1.74064e-13
3.18688e-11
4.21039e-14
4.51223e-13
3.94068e-13
1.48679e-14
4.63129e-11
1.3751e-13
5.65243e-13
6.67791e-14
4.12081e-13
3.89694e-13
6.42693e-13
1.29138e-13
9.26632e-14
6.79358e-14
1.40138e-11
6.80147e-14
9.1975e-14
2.28148e-13
2.21858e-11
5.10779e-14
3.69789e-14
4.7736e-14
2.53678e-15
3.04713e-14
1.58662e-14
1.91098e-14
8.25617e-14
1.25526e-13
1.55953e-14
2.27236e-14
4.77992e-12
1.00951e-13
3.98032e-14
8.26209e-12
1.54873e-14
9.99534e-15
4.09358e-14
4.80657e-12
2.77243e-14
3.5953e-12
3.08612e-15
1.61829e-14
1.23555e-14
1.88905e-14
3.91929e-15
4.03393e-14
1.04558e-11
9.97678e-12
8.93921e-13
1.39857e-12
3.29083e-12
3.53196e-12
3.37984e-12
1.77184e-12
2.13399e-12
6.69645e-13
2.42102e-13
2.20328e-12
4.7257e-12
5.39181e-12
2.16355e-12
1.76129e-12
2.99963e-12
6.81527e-13
2.24418e-12
5.07366e-13
1.28501e-12
2.0404e-12
3.60469e-13
1.30521e-12
7.69265e-13
3.5444e-12
1.07435e-13
1.16905e-12
1.60694e-12
8.14555e-13
6.3093e-13
5.5748e-13
4.24666e-13
1.77542e-13
6.57177e-13
2.4874e-13
9.29937e-15
2.37407e-13
4.83581e-13
5.35896e-14
1.72723e-12
4.30757e-13
1.4208e-14
6.24451e-14
2.91061e-14
1.19936e-14
3.30106e-14
3.64313e-14
7.6832e-15
1.94831e-13
3.57805e-13
3.3785e-13
5.23782e-14
1.63388e-13
3.06437e-14
7.11423e-15
5.95012e-15
5.91944e-14
5.08843e-14
1.26448e-13
1.44305e-13
2.52904e-13
3.87759e-14
3.79775e-13
1.54477e-13
9.17814e-14
1.36576e-13
3.12748e-14
4.88204e-15
5.90305e-14
7.93826e-14
2.92866e-15
1.55458e-14
3.757e-14
6.38335e-13
1.06717e-12
2.83553e-12
8.5187e-13
5.97393e-12
3.62792e-12
1.047e-11
5.32773e-12
4.83068e-12
2.83982e-13
4.24746e-13
3.49109e-13
2.52054e-13
3.20301e-12
9.92033e-14
5.56287e-12
2.73784e-12
1.98148e-13
1.00509e-13
6.38238e-13
3.17533e-12
1.26562e-13
1.07958e-12
8.12568e-13
1.69499e-12
2.05218e-12
1.07619e-12
2.37821e-14
5.02016e-14
1.18472e-12
5.23618e-13
5.45634e-13
4.88133e-13
9.69692e-14
2.4072e-13
2.68494e-14
1.38056e-14
1.53166e-15
1.47582e-13
1.83184e-13
7.45736e-14
3.59489e-14
3.2189e-14
1.10968e-13
8.80708e-15
4.07089e-13
3.19547e-13
1.01754e-14
1.68186e-13
1.94041e-13
1.30206e-13
2.9902e-14
8.99505e-15
4.54865e-14
7.79361e-14
1.91451e-13
2.76124e-14
6.88052e-14
6.70432e-16
8.07351e-14
9.41035e-15
1.47527e-14
1.25226e-13
1.09746e-13
2.70305e-14
3.62286e-14
3.24478e-14
9.26663e-14
8.98406e-15
3.02527e-14
1.84631e-14
9.29356e-14
2.04465e-14
6.54975e-16
2.32218e-11
4.90821e-12
7.72939e-14
3.67475e-13
3.16305e-12
1.8996e-13
2.05683e-13
4.06042e-12
1.02369e-12
2.13485e-12
2.84023e-12
2.16812e-12
8.72509e-14
2.61385e-13
6.07598e-13
2.76199e-12
1.33375e-12
7.8369e-13
3.09667e-12
1.38639e-12
2.06997e-13
1.18132e-13
2.45239e-12
4.25368e-13
1.37303e-12
1.94793e-12
6.82037e-14
7.87524e-13
1.55395e-13
6.67518e-14
1.22165e-12
1.88893e-13
3.46359e-13
3.33457e-14
7.46567e-14
3.25831e-13
3.63201e-13
7.2568e-13
1.18594e-12
3.14224e-13
6.51812e-13
2.50767e-13
8.02508e-15
3.0872e-14
2.39928e-13
2.78885e-13
3.11388e-13
7.79926e-14
2.47514e-13
1.30057e-13
1.51622e-13
4.81549e-14
1.16292e-13
1.57753e-13
1.65991e-13
1.22607e-13
1.61231e-14
3.345e-14
8.4996e-14
1.34951e-13
1.47085e-13
3.62427e-14
6.77996e-15
6.41275e-15
5.22073e-14
9.33101e-14
1.3069e-13
1.4553e-15
4.03935e-14
9.92119e-14
1.69227e-14
4.19743e-14
1.44172e-14
8.89413e-14
6.69026e-12
6.42456e-13
9.97565e-12
7.89024e-12
2.26383e-13
6.64857e-13
6.12999e-13
3.34065e-12
2.61977e-12
5.07602e-13
2.43878e-13
4.68438e-13
3.70666e-13
2.86305e-12
1.5024e-12
6.03964e-13
2.15808e-12
2.43061e-12
5.85742e-14
7.8026e-13
3.41347e-14
1.50773e-13
3.76803e-13
7.32781e-13
1.87325e-12
6.01328e-13
7.16387e-13
8.43462e-13
6.02464e-13
6.63471e-14
2.54941e-13
3.18769e-13
1.34061e-13
3.12642e-15
5.83609e-14
2.70608e-13
1.32282e-13
3.32205e-13
2.97009e-13
2.64609e-13
1.55692e-13
2.66534e-14
1.2158e-13
3.84697e-13
2.72414e-13
3.0469e-13
4.11606e-14
1.43302e-14
3.08436e-13
5.40476e-14
2.58471e-14
2.26667e-14
5.70618e-14
9.06431e-14
1.72678e-13
1.52952e-13
3.41403e-14
8.82867e-14
1.25056e-14
2.34327e-14
8.05672e-14
1.31612e-15
3.33911e-14
5.80588e-15
8.01203e-14
5.60946e-14
1.41363e-15
1.96493e-15
2.03621e-14
1.39459e-13
6.66566e-15
3.79023e-14
1.22335e-14
2.91639e-14
1.16444e-12
3.63335e-12
2.16237e-13
1.69216e-12
4.8665e-12
2.59846e-12
5.11002e-13
1.2157e-12
2.00169e-12
1.52859e-12
1.15542e-12
5.82169e-12
1.88255e-12
1.72023e-12
3.2895e-12
5.22514e-12
4.14229e-13
1.24354e-12
1.93853e-12
3.21331e-12
1.04392e-12
1.46188e-12
6.27941e-14
7.67092e-13
1.3398e-13
1.21874e-13
7.34899e-13
4.15443e-13
1.05177e-13
3.2363e-13
1.21599e-12
1.2225e-12
1.70212e-13
1.51735e-13
1.51642e-12
3.45803e-13
1.19441e-13
3.87942e-13
8.3896e-13
3.10928e-13
3.71573e-13
2.55478e-13
5.21435e-16
1.41674e-13
8.39099e-14
4.08329e-14
5.21501e-13
9.18175e-14
1.45476e-13
2.64864e-14
2.2862e-14
0
3.91179e-13
4.16281e-13
1.08225e-13
3.50486e-14
5.61511e-14
2.44909e-16
6.64e-14
5.82724e-14
3.33909e-14
1.6722e-14
7.50568e-14
9.90449e-14
1.08022e-14
2.68732e-14
2.4998e-14
2.06952e-14
3.43946e-14
4.58752e-14
7.28363e-14
1.29288e-14
2.06117e-14
7.53464e-14
4.74037e-13
4.18454e-12
1.38285e-12
3.53928e-12
2.11413e-12
3.38947e-12
2.78671e-12
1.0012e-11
1.28373e-12
4.25561e-12
3.77883e-13
6.3478e-13
1.65869e-12
1.23295e-12
1.9746e-14
8.64555e-14
4.08441e-13
2.63118e-12
3.89493e-12
2.80709e-12
2.2751e-12
1.34769e-12
4.64026e-14
4.50807e-14
1.19388e-12
1.81491e-12
1.14772e-12
4.33327e-14
4.82963e-13
1.84983e-13
6.80523e-14
6.11565e-13
1.04674e-14
2.2678e-13
1.034e-15
3.56062e-14
4.70761e-13
7.7664e-13
8.20855e-13
5.25766e-13
3.8678e-13