/*--------------------------------*- C++ -*----------------------------------*\
| =========                 |                                                 |
| \\      /  F ield         | OpenFOAM: The Open Source CFD Toolbox           |
|  \\    /   O peration     | Version:  2312                                  |
|   \\  /    A nd           | Website:  www.openfoam.com                      |
|    \\/     M anipulation  |                                                 |
\*---------------------------------------------------------------------------*/
FoamFile
{
    version     2.0;
    format      ascii;
    arch        "LSB;label=32;scalar=64";
    class       volSymmTensorField;
    location    "0";
    object      turbulenceProperties:R;
}
// * * * * * * * * * * * * * * * * * * * * * * * * * * * * * * * * * * * * * //

dimensions      [0 2 -2 0 0 0 0];

internalField   nonuniform List<symmTensor> 
11040
(
(0.526661 -0.00376579 -1.22719e-21 0.392406 -1.72522e-22 0.396046)
(0.509764 -0.0355569 4.09892e-20 0.380785 5.76236e-21 0.393089)
(0.497602 -0.0540035 8.63999e-20 0.380589 1.21463e-20 0.397747)
(0.483592 -0.0636734 -4.90426e-21 0.378957 -6.89453e-22 0.398541)
(0.469044 -0.068849 0 0.375398 0 0.396195)
(0.455552 -0.0717184 -4.35831e-21 0.371229 -6.12702e-22 0.392637)
(0.443823 -0.0734118 8.13685e-21 0.36737 1.1439e-21 0.389092)
(0.433974 -0.0745057 -6.44727e-20 0.364241 -9.06373e-21 0.386135)
(0.425835 -0.075284 5.3048e-20 0.361933 7.45762e-21 0.383928)
(0.419127 -0.0758845 3.31342e-21 0.360372 4.65808e-22 0.382434)
(0.413602 -0.0763904 4.98916e-20 0.359488 7.01388e-21 0.381599)
(0.40902 -0.0768323 -4.66141e-20 0.359152 -6.55313e-21 0.381303)
(0.405144 -0.0772257 -4.36026e-20 0.359244 -6.12977e-21 0.381426)
(0.401783 -0.0775713 -3.82727e-20 0.359648 -5.38047e-21 0.381852)
(0.398763 -0.0778592 0 0.360239 0 0.382452)
(0.395939 -0.0780787 -2.23977e-21 0.360911 -3.14873e-22 0.383118)
(0.393196 -0.0782203 1.67875e-20 0.36158 2.36003e-21 0.38376)
(0.390429 -0.0782714 0 0.362155 0 0.384284)
(0.387564 -0.0782259 -7.3547e-21 0.362584 -1.03394e-21 0.384636)
(0.38453 -0.0780732 -1.71855e-21 0.362795 -2.41598e-22 0.384742)
(0.38129 -0.0778132 0 0.362781 0 0.384594)
(0.377764 -0.0773964 1.47006e-20 0.362122 2.06664e-21 0.383764)
(0.373985 -0.0768242 -8.16432e-22 0.360577 -1.14776e-22 0.382018)
(0.370138 -0.0761862 1.63034e-21 0.358655 2.29197e-22 0.379883)
(0.366327 -0.0755252 -2.60503e-20 0.35662 -3.66221e-21 0.377632)
(0.362546 -0.0748443 2.51976e-20 0.354469 3.54235e-21 0.375261)
(0.358803 -0.0741507 0 0.352235 0 0.372807)
(0.355102 -0.0734481 0 0.349934 0 0.370285)
(0.351447 -0.0727411 0 0.347592 0 0.367723)
(0.347843 -0.0720323 2.50246e-20 0.345223 3.51803e-21 0.365134)
(0.344295 -0.0713248 8.05941e-22 0.342845 1.13301e-22 0.362538)
(0.340805 -0.0706205 0 0.340472 0 0.35995)
(0.337376 -0.0699206 5.14648e-20 0.338114 7.23505e-21 0.357378)
(0.334015 -0.0692276 0 0.33579 0 0.354843)
(0.330725 -0.0685424 5.1082e-20 0.333518 7.18123e-21 0.352362)
(0.327504 -0.0678648 0 0.331292 0 0.34993)
(0.32435 -0.067195 0 0.329112 0 0.347546)
(0.321282 -0.0665362 0 0.327015 0 0.345249)
(0.318288 -0.0658862 -9.94046e-23 0.324993 -1.39745e-23 0.343029)
(0.315377 -0.0652463 9.92729e-23 0.323057 1.3956e-23 0.340897)
(0.31254 -0.064615 5.11687e-20 0.321186 7.19342e-21 0.338834)
(1.83018e-17 3.67387e-18 1.92468e-21 1.70772e-17 2.70577e-22 1.83018e-17)
(8.15778e-17 1.24371e-18 1.95469e-21 5.91909e-17 2.74795e-22 6.16783e-17)
(4.12251e-17 0 -1.36346e-19 3.35704e-17 -1.91678e-20 3.10188e-17)
(9.62648e-18 -6.18577e-19 -5.83314e-20 7.15218e-18 -8.20037e-21 9.62648e-18)
(9.16269e-18 -5.89046e-19 0 6.80651e-18 0 9.16269e-18)
(5.53569e-17 -8.32553e-18 -5.58287e-20 4.64763e-17 -7.84854e-21 4.64763e-17)
(5.36855e-17 8.32384e-18 -5.23288e-20 4.74427e-17 -7.35652e-21 4.53617e-17)
(3.12938e-17 0 5.507e-20 2.35073e-17 7.74189e-21 2.35073e-17)
(5.17907e-17 7.73769e-18 -4.57825e-20 4.08669e-17 -6.43622e-21 4.45081e-17)
(0 0 0 0 0 0)
(6.30615e-17 1.33023e-17 -4.56146e-20 6.30615e-17 -6.41261e-21 6.30615e-17)
(8.11217e-18 0 7.59011e-20 1.11305e-17 1.06704e-20 1.11305e-17)
(1.43746e-17 1.76725e-19 3.99961e-20 1.43746e-17 5.62276e-21 1.1547e-17)
(9.83727e-17 2.10405e-17 2.91627e-20 1.01023e-16 4.09977e-21 1.01023e-16)
(4.8477e-17 -1.00992e-17 -1.17212e-20 4.8477e-17 -1.6478e-21 5.0963e-17)
(4.49021e-17 9.47181e-18 -7.3287e-21 4.49021e-17 -1.03029e-21 4.49021e-17)
(8.50912e-17 -1.75571e-17 -1.03074e-20 8.18121e-17 -1.44904e-21 8.39982e-17)
(4.03663e-17 8.06596e-18 1.60977e-21 3.72936e-17 2.26305e-22 3.93421e-17)
(3.57286e-17 -7.64155e-18 -1.50712e-21 3.66876e-17 -2.11875e-22 3.66876e-17)
(3.38848e-17 7.17043e-18 1.76171e-21 3.40529e-17 2.47666e-22 3.40529e-17)
(6.59901e-17 1.34501e-17 -5.26418e-21 6.3478e-17 -7.40051e-22 6.3478e-17)
(1.27686e-17 -1.06606e-19 -1.20634e-20 1.95914e-17 -1.6959e-21 1.618e-17)
(1.50803e-17 1.59892e-19 1.07219e-20 9.9638e-18 1.50731e-21 1.33748e-17)
(6.8681e-18 -1.06452e-19 2.14152e-20 5.16487e-18 3.0106e-21 5.16487e-18)
(6.92646e-18 -2.12658e-19 2.27273e-20 5.22519e-18 3.19507e-21 5.22519e-18)
(1.01262e-18 -2.12372e-19 -2.26967e-20 1.01262e-18 -3.19076e-21 1.01262e-18)
(1.36747e-17 -1.06029e-19 0 1.8764e-17 0 1.8764e-17)
(3.5229e-17 7.09273e-18 0 3.35353e-17 0 3.35353e-17)
(3.24234e-17 -6.97554e-18 -2.12619e-20 3.41145e-17 -2.98905e-21 3.41145e-17)
(1.49065e-17 0 -2.05645e-20 9.84152e-18 -2.89101e-21 1.32182e-17)
(2.99695e-17 6.32183e-18 -2.18586e-20 2.99695e-17 -3.07294e-21 2.99695e-17)
(3.36844e-17 6.94531e-18 -4.23394e-20 3.70518e-17 -5.95219e-21 3.36844e-17)
(3.25371e-17 -6.94003e-18 -4.23072e-20 3.5902e-17 -5.94766e-21 3.5902e-17)
(3.14181e-17 6.69205e-18 0 3.47641e-17 0 3.47641e-17)
(3.65796e-17 -7.09865e-18 0 3.3239e-17 0 3.65796e-17)
(1.3478e-17 -2.08903e-19 -4.20254e-20 1.01356e-17 -5.90803e-21 1.01356e-17)
(3.48508e-17 -6.70873e-18 0 3.14964e-17 0 3.48508e-17)
(3.57918e-17 -7.04227e-18 0 3.57918e-17 0 3.91058e-17)
(3.39219e-17 6.45073e-18 0 4.39101e-17 0 4.05807e-17)
(6.12749e-18 0 0 4.46487e-18 0 6.12749e-18)
(3.26541e-17 6.90465e-18 -8.41831e-20 3.4328e-17 -1.18347e-20 3.26541e-17)
(1.42453e-17 -2.85955e-18 -1.19846e-20 1.32921e-17 -1.68483e-21 1.42453e-17)
(1.24631e-17 -1.94331e-18 -7.94097e-20 1.53781e-17 -1.11636e-20 1.24631e-17)
(4.2513e-17 8.99786e-18 5.65661e-20 4.45126e-17 7.95221e-21 4.2513e-17)
(5.47332e-17 8.77334e-18 4.90264e-20 5.08339e-17 6.89225e-21 4.69347e-17)
(6.01951e-18 -4.6675e-19 -4.69485e-20 7.88651e-18 -6.60014e-21 6.01951e-18)
(3.00484e-17 0 0 2.65115e-17 0 2.29745e-17)
(3.58644e-17 -7.07792e-18 4.18788e-20 4.2526e-17 5.88743e-21 4.2526e-17)
(4.70757e-20 0 9.83362e-21 4.70757e-20 1.38243e-21 4.70757e-20)
(5.17507e-17 1.101e-17 -9.22879e-21 6.05588e-17 -1.29741e-21 5.76228e-17)
(7.26712e-17 1.14069e-17 0 6.43752e-17 0 6.16099e-17)
(5.1721e-17 -1.07817e-17 0 5.1721e-17 0 5.43347e-17)
(4.41454e-17 9.49989e-18 -6.16487e-20 4.6597e-17 -8.66673e-21 4.6597e-17)
(4.59495e-17 -8.91535e-18 0 4.13481e-17 0 4.36488e-17)
(4.24058e-17 -8.50539e-18 0 4.02457e-17 0 4.02457e-17)
(6.04079e-19 -1.26774e-19 1.27517e-20 6.04079e-19 1.79267e-21 6.04079e-19)
(3.58801e-17 7.37971e-18 8.97937e-21 3.77846e-17 1.26234e-21 3.9689e-17)
(2.20155e-17 3.90977e-19 2.80906e-21 1.84409e-17 3.94905e-22 1.66536e-17)
(6.27391e-18 -5.23802e-20 1.05374e-20 9.62625e-18 1.48138e-21 7.95008e-18)
(3.33496e-17 6.2079e-18 4.93619e-21 3.02088e-17 6.93942e-22 3.02088e-17)
(5.65507e-17 1.17438e-17 -2.59808e-21 5.57242e-17 -3.65245e-22 5.8663e-17)
(4.34745e-18 2.57407e-19 8.6305e-21 3.31782e-18 1.2133e-21 3.31782e-18)
(5.07787e-17 1.08824e-17 4.39605e-21 5.49743e-17 6.18008e-22 5.21773e-17)
(5.32546e-17 1.13213e-17 -6.59514e-21 5.3954e-17 -9.27161e-22 5.3954e-17)
(5.63417e-18 -8.73283e-20 -1.647e-20 4.23692e-18 -2.31539e-21 4.23692e-18)
(1.23309e-17 -1.74495e-19 -1.86488e-20 1.23309e-17 -2.62169e-21 1.51228e-17)
(5.36062e-17 -1.10679e-17 1.7532e-20 5.22118e-17 2.46469e-21 5.22118e-17)
(3.57277e-17 5.7445e-18 0 2.87646e-17 0 3.15498e-17)
(2.70431e-17 5.5627e-18 0 2.98245e-17 0 2.70431e-17)
(5.48126e-17 1.10225e-17 1.746e-20 5.48126e-17 2.45458e-21 5.20353e-17)
(8.25939e-19 1.73335e-19 -1.7435e-20 8.25939e-19 -2.45106e-21 8.25939e-19)
(3.17715e-17 -5.36619e-18 3.48234e-20 2.76171e-17 4.89556e-21 2.76171e-17)
(1.11544e-17 1.72911e-19 0 8.38784e-18 0 8.38784e-18)
(2.45756e-17 5.18406e-18 0 2.45756e-17 0 2.45756e-17)
(8.31873e-19 1.71858e-19 3.51133e-20 8.31873e-19 4.93631e-21 8.31873e-19)
(2.86078e-17 5.4911e-18 -3.50599e-20 3.68445e-17 -4.9288e-21 3.40989e-17)
(2.45557e-17 -1.71713e-19 -2.69873e-22 3.00505e-17 -3.79394e-23 3.27979e-17)
(2.21632e-17 0 5.4172e-22 1.66483e-17 7.61564e-23 1.66483e-17)
(2.72543e-17 5.61951e-18 3.39896e-20 2.99789e-17 4.77834e-21 2.72543e-17)
(2.88333e-17 -5.64605e-18 -1.34449e-22 2.88333e-17 -1.89012e-23 3.15708e-17)
(5.76141e-17 1.07662e-17 3.45131e-20 5.35127e-17 4.85193e-21 5.21456e-17)
(3.78611e-17 -5.50586e-18 3.46132e-20 2.96023e-17 4.86602e-21 3.23553e-17)
(4.97152e-17 -2.94373e-18 1.15663e-20 3.79403e-17 1.62602e-21 3.79403e-17)
(3.2364e-17 0 3.55139e-20 4.44154e-17 4.99264e-21 4.44154e-17)
(4.99996e-17 0 -3.91071e-20 3.75582e-17 -5.49778e-21 3.75582e-17)
(3.62055e-18 -7.62749e-19 -3.83609e-20 3.62055e-18 -5.39287e-21 3.62055e-18)
(1.76956e-19 0 3.69643e-20 1.76956e-19 5.19654e-21 1.76956e-19)
(1.51197e-17 -3.50158e-19 4.40262e-20 2.07222e-17 6.18931e-21 2.07222e-17)
(5.81914e-17 1.09396e-17 -8.33611e-21 5.55394e-17 -1.17191e-21 5.28874e-17)
(2.43314e-17 -5.00491e-18 0 2.68339e-17 0 2.43314e-17)
(1.90133e-17 -2.94736e-19 0 1.42975e-17 0 1.42975e-17)
(4.32041e-17 -8.91257e-18 -2.8015e-20 4.54323e-17 -3.93841e-21 4.76604e-17)
(5.44806e-17 8.44721e-18 0 4.81452e-17 0 4.60334e-17)
(3.85045e-17 7.94279e-18 2.49667e-20 4.64473e-17 3.50987e-21 4.44616e-17)
(1.15184e-17 -1.16714e-19 0 1.71207e-17 0 1.33859e-17)
(3.86509e-17 7.24515e-18 2.20837e-20 3.51381e-17 3.10458e-21 3.51381e-17)
(3.13222e-17 -6.60721e-18 0 3.13222e-17 0 3.13222e-17)
(5.80885e-18 0 -9.76236e-21 8.91461e-18 -1.37242e-21 7.36173e-18)
(3.18906e-17 -5.65364e-18 -1.37583e-20 2.82431e-17 -1.93418e-21 2.82431e-17)
(1.87455e-18 -8.55985e-20 0 2.55934e-18 0 2.55934e-18)
(2.44756e-17 -5.21709e-18 -4.03666e-21 2.70441e-17 -5.67484e-22 2.70441e-17)
(4.73978e-17 -9.62478e-18 -1.88993e-21 4.54437e-17 -2.65691e-22 4.54437e-17)
(4.37047e-17 9.04624e-18 -1.76684e-21 4.48288e-17 -2.48387e-22 4.25805e-17)
(4.56399e-17 -9.23604e-18 -7.20167e-21 4.2776e-17 -1.01243e-21 4.50671e-17)
(4.31264e-17 -9.09723e-18 0 4.31264e-17 0 4.31264e-17)
(8.29604e-18 0 -1.25992e-20 6.57822e-18 -1.77122e-21 8.86865e-18)
(4.32192e-17 -9.2989e-18 -1.79873e-21 4.55082e-17 -2.5287e-22 4.55082e-17)
(8.69841e-17 1.84387e-17 -3.05519e-20 8.92711e-17 -4.29506e-21 8.69841e-17)
(7.03915e-18 0 1.79531e-21 1.04661e-17 2.52389e-22 8.18146e-18)
(4.21585e-17 -9.05656e-18 -1.43459e-20 4.55814e-17 -2.01678e-21 4.55814e-17)
(4.43158e-17 -9.0454e-18 1.43282e-20 4.20366e-17 2.01429e-21 4.43158e-17)
(2.10644e-17 4.41041e-18 2.8621e-20 2.4479e-17 4.02361e-21 2.22026e-17)
(2.07156e-17 4.40533e-18 -1.4294e-20 2.29893e-17 -2.00949e-21 2.29893e-17)
(2.27052e-17 -4.68516e-18 5.71225e-20 2.61126e-17 8.03043e-21 2.61126e-17)
(9.24275e-18 2.83816e-19 8.9212e-22 6.97223e-18 1.25417e-22 6.97223e-18)
(2.27516e-17 -4.79931e-18 -8.87396e-22 2.27516e-17 -1.24752e-22 2.27516e-17)
(2.99827e-17 -4.22885e-18 4.43086e-22 2.32166e-17 6.22901e-23 2.5472e-17)
(2.27384e-17 -4.79653e-18 -8.86881e-22 2.27384e-17 -1.2468e-22 2.27384e-17)
(2.36075e-17 4.53138e-18 4.4511e-22 3.04045e-17 6.25747e-23 2.81389e-17)
(1.8055e-17 2.79881e-19 2.19938e-22 1.35769e-17 3.09194e-23 1.35769e-17)
(6.5833e-18 1.40614e-19 -2.20997e-22 9.95803e-18 -3.10683e-23 8.83312e-18)
(7.40377e-18 2.80928e-19 0 8.52749e-18 0 9.6512e-18)
(2.14552e-17 -4.52584e-18 0 2.14552e-17 0 2.14552e-17)
(2.4322e-17 -5.63319e-19 0 3.33351e-17 0 3.33351e-17)
(4.44529e-17 -4.63212e-18 7.2801e-21 3.46096e-17 1.02345e-21 3.51886e-17)
(4.73082e-17 5.39891e-18 6.03394e-20 3.89099e-17 8.48266e-21 3.77102e-17)
(1.96585e-17 4.14581e-18 6.70195e-20 2.0843e-17 9.42177e-21 1.96585e-17)
(1.51467e-17 5.74593e-19 -7.2245e-20 1.7445e-17 -1.01564e-20 1.97434e-17)
(4.29999e-17 9.09287e-18 2.77156e-20 4.52042e-17 3.89633e-21 4.29999e-17)
(2.11483e-17 -4.46111e-18 0 2.11483e-17 0 2.11483e-17)
(1.62128e-17 4.97843e-19 0 1.223e-17 0 1.223e-17)
(3.57418e-17 -7.53947e-18 2.36989e-20 3.57418e-17 3.33165e-21 3.57418e-17)
(2.15235e-19 0 4.49603e-20 2.15235e-19 6.32063e-21 2.15235e-19)
(1.02324e-19 0 2.13743e-20 1.02324e-19 3.00485e-21 1.02324e-19)
(3.25314e-17 -6.01161e-18 0 3.09283e-17 0 2.93252e-17)
(1.79115e-18 3.77832e-19 0 1.79115e-18 0 1.79115e-18)
(8.19125e-18 8.90283e-20 -2.23875e-20 5.34234e-18 -3.14729e-21 6.7668e-18)
(2.57314e-17 -5.53585e-18 4.2184e-21 2.70734e-17 5.93033e-22 2.70734e-17)
(2.62815e-17 5.29128e-18 -1.58874e-20 2.50179e-17 -2.23349e-21 2.50179e-17)
(2.22579e-17 4.75509e-18 7.47336e-21 2.58243e-17 1.05062e-21 2.46355e-17)
(1.97957e-17 4.11962e-18 0 2.37058e-17 0 2.14715e-17)
(3.10684e-19 -6.55368e-20 0 3.10684e-19 0 3.10684e-19)
(1.05291e-18 -8.44537e-20 0 1.42144e-18 0 1.42144e-18)
(4.9517e-18 8.61965e-20 2.89005e-21 6.79056e-18 4.06291e-22 6.79056e-18)
(1.38402e-17 1.17151e-19 5.89188e-21 9.15413e-18 8.28295e-22 1.10286e-17)
(6.32816e-18 -1.46566e-19 0 9.61123e-18 0 7.73519e-18)
(7.03378e-18 -5.8602e-20 1.17891e-20 7.97142e-18 1.65734e-21 6.09615e-18)
(7.07596e-18 1.75753e-19 2.20978e-20 6.13861e-18 3.10656e-21 8.0133e-18)
(3.44902e-17 -7.37753e-18 1.47237e-20 3.5427e-17 2.0699e-21 3.5427e-17)
(3.39861e-17 7.31357e-18 8.82771e-21 3.58584e-17 1.24102e-21 3.58584e-17)
(1.72374e-17 3.50741e-19 1.32299e-20 1.16256e-17 1.85989e-21 1.34962e-17)
(1.72159e-17 3.50399e-18 -1.17484e-20 2.00191e-17 -1.65162e-21 2.00191e-17)
(1.74246e-17 -3.67553e-18 -2.34734e-20 1.74246e-17 -3.29996e-21 1.74246e-17)
(2.55292e-18 -1.16575e-19 0 3.48552e-18 0 3.48552e-18)
(5.84348e-18 3.4947e-19 -2.41669e-20 7.70733e-18 -3.39744e-21 5.84348e-18)
(6.89154e-18 -1.16458e-19 7.32126e-22 5.02821e-18 1.02924e-22 6.89154e-18)
(1.73076e-17 3.59179e-18 0 2.10153e-17 0 1.91615e-17)
(1.49306e-17 -2.31448e-19 0 1.12275e-17 0 1.12275e-17)
(1.63711e-17 3.47503e-18 2.33026e-20 1.82244e-17 3.27594e-21 1.82244e-17)
(0 0 0 0 0 0)
(3.18636e-17 -3.2183e-18 -2.31225e-20 2.26684e-17 -3.25063e-21 2.63465e-17)
(6.98114e-18 -2.31011e-19 0 1.06773e-17 0 8.82922e-18)
(1.82163e-17 3.80808e-18 0 2.1909e-17 0 2.00626e-17)
(1.11909e-19 0 2.33767e-20 1.11909e-19 3.28635e-21 1.11909e-19)
(1.418e-17 -2.99118e-18 0 1.418e-17 0 1.418e-17)
(3.06337e-17 -1.76471e-18 0 2.22513e-17 0 2.35748e-17)
(2.4511e-17 3.21152e-18 -2.30739e-20 3.09341e-17 -3.24378e-21 3.18516e-17)
(2.63777e-17 4.10481e-18 -3.44072e-20 3.54995e-17 -4.83705e-21 3.36752e-17)
(1.539e-17 3.12019e-18 5.60441e-20 1.44985e-17 7.87882e-21 1.539e-17)
(3.39556e-17 3.87509e-18 -4.33088e-20 2.79277e-17 -6.08846e-21 2.70666e-17)
(3.08294e-17 6.39788e-18 2.07593e-20 3.74336e-17 2.91839e-21 3.41315e-17)
(2.88925e-17 -6.10458e-18 -2.97113e-20 3.04679e-17 -4.1769e-21 2.88925e-17)
(1.62377e-17 -1.8735e-19 0 2.37317e-17 0 2.22329e-17)
(3.23743e-17 -5.53314e-18 -2.69301e-20 2.66626e-17 -3.78591e-21 2.95184e-17)
(4.94006e-17 1.05605e-17 -1.71329e-20 5.62138e-17 -2.40858e-21 5.48512e-17)
(4.87556e-17 -1.01532e-17 0 4.74663e-17 0 4.87556e-17)
(3.52151e-18 -3.04743e-19 7.66322e-21 4.74048e-18 1.07731e-21 4.74048e-18)
(2.1434e-17 4.39095e-18 -1.44809e-20 2.37375e-17 -2.03576e-21 2.1434e-17)
(7.06408e-18 0 2.73434e-20 8.15144e-18 3.844e-21 9.2388e-18)
(2.12753e-17 4.29498e-18 6.44799e-21 2.12753e-17 9.06474e-22 2.02496e-17)
(2.40685e-17 -3.80539e-18 6.0757e-21 1.92363e-17 8.54137e-22 2.11692e-17)
(7.20757e-18 -8.52641e-20 -5.71758e-21 4.93386e-18 -8.03792e-22 6.75283e-18)
(2.29512e-18 0 0 3.14977e-18 0 3.14977e-18)
(3.13808e-17 -6.45827e-18 0 3.01781e-17 0 3.17817e-17)
(4.84843e-18 -1.34916e-19 1.18005e-21 6.06854e-18 1.65895e-22 4.56687e-18)
(3.06066e-17 6.16114e-18 -2.4067e-21 3.06066e-17 -3.38339e-22 2.90753e-17)
(5.63104e-18 1.91668e-19 0 4.48103e-18 0 6.01437e-18)
(3.32222e-18 -2.87508e-19 -2.40994e-21 4.47225e-18 -3.38795e-22 4.47225e-18)
(2.9243e-17 -6.18205e-18 -9.64074e-21 3.07765e-17 -1.35532e-21 2.9243e-17)
(6.20685e-18 1.43744e-19 2.40976e-21 4.67358e-18 3.38771e-22 4.67358e-18)
(3.35948e-17 -6.0828e-18 -7.22651e-21 2.89968e-17 -1.01592e-21 3.05295e-17)
(2.96575e-17 6.27091e-18 0 3.11893e-17 0 2.96575e-17)
(1.41601e-17 -3.01377e-18 -2.4059e-21 1.56909e-17 -3.38227e-22 1.56909e-17)
(6.74558e-18 4.78038e-20 9.61677e-21 6.74558e-18 1.35195e-21 8.2753e-18)
(4.61484e-18 0 -1.2013e-21 6.14355e-18 -1.68882e-22 4.61484e-18)
(1.40343e-17 -2.96045e-18 1.20073e-21 1.40343e-17 1.68801e-22 1.40343e-17)
(1.37561e-17 -2.96032e-18 0 1.45201e-17 0 1.45201e-17)
(3.35372e-17 -6.08194e-18 -2.03123e-20 2.89757e-17 -2.85555e-21 3.04962e-17)
(1.66278e-17 2.56325e-18 1.79046e-21 2.27037e-17 2.51708e-22 2.11847e-17)
(1.67318e-17 -3.13642e-18 0 1.52112e-17 0 1.52112e-17)
(1.26796e-17 -2.86285e-19 -2.03974e-20 1.8787e-17 -2.86751e-21 1.72601e-17)
(2.96124e-17 3.30204e-18 2.96552e-22 2.35744e-17 4.169e-23 2.35744e-17)
(1.52833e-17 3.22392e-18 2.98052e-22 1.52833e-17 4.19009e-23 1.52833e-17)
(1.46973e-17 -3.03187e-18 -1.90602e-20 1.54553e-17 -2.67953e-21 1.62133e-17)
(8.35878e-18 -3.81672e-19 -1.91954e-20 1.14122e-17 -2.69854e-21 1.14122e-17)
(1.93897e-18 0 -4.03773e-21 2.58125e-18 -5.67635e-22 1.93897e-18)
(2.86577e-17 -3.33076e-19 2.09393e-20 3.93162e-17 2.94369e-21 3.93162e-17)
(1.94822e-17 -2.78171e-18 -1.74875e-20 2.43502e-17 -2.45844e-21 2.50456e-17)
(2.65837e-17 -2.7853e-18 0 2.10131e-17 0 2.10131e-17)
(4.41963e-18 3.42913e-19 0 5.79129e-18 0 4.41963e-18)
(2.68605e-17 -5.34064e-18 1.67873e-20 2.48578e-17 2.36e-21 2.68605e-17)
(2.62129e-17 -4.83447e-18 -1.62093e-20 2.36346e-17 -2.27875e-21 2.36346e-17)
(7.33321e-18 -3.09525e-19 3.11338e-20 1.10475e-17 4.37687e-21 9.80941e-18)
(9.52246e-18 0 1.48956e-20 7.15305e-18 2.09406e-21 7.15305e-18)
(6.61149e-18 0 -1.42608e-20 1.00141e-17 -2.00482e-21 8.87993e-18)
(8.73633e-18 0 1.36659e-20 6.56253e-18 1.92118e-21 6.56253e-18)
(3.95697e-17 8.38785e-18 -1.298e-20 4.06021e-17 -1.82476e-21 3.95697e-17)
(5.83284e-19 1.2241e-19 1.23127e-20 5.83284e-19 1.73096e-21 5.83284e-19)
(1.90646e-17 3.71159e-18 0 1.72088e-17 0 1.81367e-17)
(1.77109e-17 -3.56769e-18 -2.20837e-20 1.77109e-17 -3.10458e-21 1.68327e-17)
(3.36814e-17 -6.74486e-18 0 3.1191e-17 0 3.28512e-17)
(1.45679e-17 -3.1346e-18 -9.85301e-21 1.53516e-17 -1.38516e-21 1.53516e-17)
(4.50298e-18 -1.38495e-19 4.64356e-21 5.98027e-18 6.52804e-22 4.50298e-18)
(5.58695e-18 0 -8.73943e-21 4.19679e-18 -1.22861e-21 4.19679e-18)
(2.63243e-18 4.08064e-20 2.05228e-21 1.97953e-18 2.88514e-22 1.97953e-18)
(1.80508e-18 3.82539e-20 9.61952e-22 2.47452e-18 1.35234e-22 2.47452e-18)
(4.63001e-18 -9.75682e-20 -1.9628e-21 6.34721e-18 -2.75935e-22 6.34721e-18)
(5.25494e-18 1.95502e-20 -3.93296e-21 8.07017e-18 -5.52905e-22 6.81895e-18)
(7.39527e-18 1.76048e-19 0 7.08229e-18 0 5.8304e-18)
(4.60094e-17 9.94274e-18 -3.9374e-21 4.94542e-17 -5.5353e-22 4.82015e-17)
(2.78094e-17 -5.05106e-18 3.9385e-21 2.40504e-17 5.53684e-22 2.53034e-17)
(2.39901e-17 5.12957e-18 -1.96932e-21 2.46166e-17 -2.76852e-22 2.46166e-17)
(2.42041e-17 -5.20706e-18 -5.90703e-21 2.54569e-17 -8.30425e-22 2.54569e-17)
(5.09843e-18 1.56557e-19 0 3.84597e-18 0 3.84597e-18)
(2.2951e-17 4.92974e-18 7.87084e-21 2.4829e-17 1.1065e-21 2.4829e-17)
(1.25877e-17 2.46404e-18 5.90113e-21 1.32134e-17 8.29596e-22 1.19619e-17)
(1.16312e-17 2.5027e-18 9.83345e-21 1.22569e-17 1.38241e-21 1.22569e-17)
(1.05401e-17 2.26859e-18 -7.86858e-21 1.11659e-17 -1.10618e-21 1.11659e-17)
(2.10304e-17 2.56971e-18 -1.56653e-20 1.97845e-17 -2.20226e-21 1.72926e-17)
(1.50473e-17 -2.48996e-18 -1.56535e-20 1.38023e-17 -2.2006e-21 1.62923e-17)
(1.03116e-17 -7.79169e-20 1.4695e-20 1.52982e-17 2.06586e-21 1.40516e-17)
(1.14995e-17 2.42568e-18 1.67251e-20 1.14995e-17 2.35126e-21 1.14995e-17)
(2.38436e-17 -5.02963e-18 1.55665e-20 2.38436e-17 2.18837e-21 2.38436e-17)
(1.30949e-17 -2.56683e-18 1.56477e-20 1.5584e-17 2.19979e-21 1.5584e-17)
(2.04541e-17 2.72073e-18 0 1.67228e-17 0 1.67228e-17)
(2.01953e-18 -1.56593e-19 -1.57511e-20 2.6459e-18 -2.21433e-21 2.01953e-18)
(3.52451e-18 0 -1.50302e-21 2.56818e-18 -2.11299e-22 3.52451e-18)
(2.4146e-17 3.48759e-18 -1.25287e-20 1.96619e-17 -1.76131e-21 2.01602e-17)
(2.09395e-17 -4.43841e-18 1.31306e-20 2.14616e-17 1.84594e-21 2.09395e-17)
(1.5198e-17 2.10683e-18 1.32448e-20 1.83582e-17 1.86199e-21 1.94116e-17)
(1.70978e-17 0 2.6302e-20 1.2391e-17 3.6976e-21 1.2914e-17)
(1.12352e-17 2.05284e-18 -2.58108e-20 1.3288e-17 -3.62855e-21 1.12352e-17)
(1.60563e-17 0 -3.76726e-20 1.20613e-17 -5.29611e-21 1.20613e-17)
(1.15072e-18 2.41494e-19 -2.42909e-20 1.15072e-18 -3.41487e-21 1.15072e-18)
(1.94302e-17 -3.6045e-18 0 1.75698e-17 0 1.75698e-17)
(1.64978e-17 3.35789e-18 2.25171e-20 1.56023e-17 3.16551e-21 1.64978e-17)
(1.76714e-17 -3.66403e-18 -3.25191e-20 1.85335e-17 -4.57162e-21 1.93956e-17)
(4.79391e-18 0 0 7.26124e-18 0 6.4388e-18)
(1.26307e-17 1.95782e-19 2.95393e-20 9.49824e-18 4.15271e-21 9.49824e-18)
(1.54701e-17 -2.97792e-18 -1.8721e-20 1.39811e-17 -2.63185e-21 1.54701e-17)
(1.65285e-17 2.82647e-18 -8.88449e-21 1.51152e-17 -1.249e-21 1.44086e-17)
(2.48372e-17 5.35682e-18 2.52572e-20 2.75156e-17 3.55072e-21 2.61764e-17)
(1.08207e-17 2.29633e-18 7.96478e-21 1.27212e-17 1.11971e-21 1.20877e-17)
(8.90322e-18 2.24331e-19 -3.76076e-21 5.91215e-18 -5.28697e-22 7.10858e-18)
(8.34977e-18 -1.40967e-19 -3.54482e-21 1.1451e-17 -4.9834e-22 1.1451e-17)
(1.06864e-17 1.49181e-19 -8.33639e-21 8.0343e-18 -1.17195e-21 8.0343e-18)
(1.20672e-18 1.22525e-19 1.252e-20 1.61125e-18 1.76009e-21 1.61125e-18)
(1.96836e-17 -4.08966e-18 -3.19505e-21 1.93025e-17 -4.49168e-22 1.93025e-17)
(4.97163e-18 -7.96116e-20 -3.20312e-21 5.22638e-18 -4.50303e-22 6.24541e-18)
(2.20189e-17 4.20839e-18 0 2.02336e-17 0 2.02336e-17)
(4.81245e-18 -3.19188e-20 -3.21059e-21 7.36596e-18 -4.51352e-22 6.34456e-18)
(4.12669e-18 -6.38899e-20 3.21321e-21 5.66005e-18 4.51722e-22 5.66005e-18)
(1.85034e-17 9.58868e-20 -3.21496e-21 1.39009e-17 -4.51967e-22 1.39009e-17)
(2.04266e-17 -4.09246e-18 0 2.40075e-17 0 2.40075e-17)
(1.32726e-17 1.91862e-19 6.43286e-21 9.17958e-18 9.04348e-22 1.02028e-17)
(9.69548e-18 -2.87807e-19 1.6083e-21 1.32771e-17 2.26098e-22 1.32771e-17)
(1.13428e-17 -1.88682e-18 -1.60837e-20 9.80776e-18 -2.26109e-21 9.80776e-18)
(1.50061e-17 1.98312e-18 -4.82598e-21 1.9612e-17 -6.78449e-22 1.9612e-17)
(1.17435e-17 2.17626e-18 4.82871e-21 1.17435e-17 6.78832e-22 1.07193e-17)
(7.53021e-18 -6.37376e-20 1.28222e-20 4.98071e-18 1.80258e-21 6.00051e-18)
(5.18148e-18 6.37085e-20 1.60204e-21 5.18148e-18 2.25219e-22 4.16215e-18)
(5.86109e-18 0 0 3.81911e-18 0 4.8401e-18)
(9.72353e-18 -2.05112e-18 0 9.72353e-18 0 9.72353e-18)
(1.79412e-17 3.86774e-18 -3.98607e-22 1.99702e-17 -5.60372e-23 1.89557e-17)
(1.12228e-17 -2.10371e-18 -1.24237e-20 1.02029e-17 -1.74656e-21 1.02029e-17)
(9.58894e-22 0 2.00303e-22 9.58894e-22 2.81591e-23 9.58894e-22)
(1.21879e-18 2.56776e-19 1.27122e-20 1.21879e-18 1.78712e-21 1.21879e-18)
(5.30698e-21 0 1.10857e-21 5.30698e-21 1.55846e-22 5.30698e-21)
(2.78495e-18 -3.69146e-19 0 3.52325e-18 0 2.78495e-18)
(1.74139e-17 3.49557e-18 1.95336e-20 1.62487e-17 2.74608e-21 1.74139e-17)
(1.38425e-17 1.97346e-19 0 9.50092e-18 0 1.0685e-17)
(8.7443e-18 -1.97572e-19 0 1.15103e-17 0 1.19055e-17)
(0 0 0 0 0 0)
(3.22912e-17 -6.3297e-18 1.92933e-20 3.84291e-17 2.7123e-21 3.84291e-17)
(2.00894e-17 -3.17775e-18 0 1.70986e-17 0 1.70986e-17)
(2.73606e-17 5.7999e-18 0 2.80856e-17 0 2.73606e-17)
(6.50101e-18 1.75529e-19 3.53116e-20 4.39466e-18 4.96419e-21 5.09678e-18)
(4.04753e-19 8.49429e-20 8.54407e-21 4.04753e-19 1.20115e-21 4.04753e-19)
(4.03561e-19 -8.14317e-20 -2.45727e-20 4.03561e-19 -3.45449e-21 4.03561e-19)
(1.89868e-17 2.10258e-18 -7.83297e-21 2.52167e-17 -1.10118e-21 2.52167e-17)
(2.39683e-17 3.71545e-19 7.47445e-21 1.80235e-17 1.05078e-21 1.80235e-17)
(1.41515e-17 -2.4059e-18 -7.11765e-21 1.69819e-17 -1.00062e-21 1.7548e-17)
(1.27474e-17 -2.42092e-18 -6.76417e-21 1.16714e-17 -9.50924e-22 1.16714e-17)
(4.68552e-18 2.87005e-19 -1.28305e-20 4.68552e-18 -1.80375e-21 5.70599e-18)
(1.89601e-17 3.80282e-18 1.5179e-20 1.79943e-17 2.1339e-21 1.79943e-17)
(3.30653e-18 2.85034e-20 -2.86704e-21 2.62245e-18 -4.03055e-22 3.53456e-18)
(1.60432e-17 3.41104e-18 0 1.62581e-17 0 1.62581e-17)
(1.44708e-17 3.09617e-18 -6.34927e-22 1.48747e-17 -8.92596e-23 1.48747e-17)
(2.84641e-18 3.54624e-20 1.2971e-21 4.34228e-18 1.82349e-22 3.51697e-18)
(5.56885e-18 -7.76281e-20 -1.30138e-21 7.63894e-18 -1.82952e-22 7.63894e-18)
(7.13219e-19 -1.03701e-19 0 9.20621e-19 0 9.20621e-19)
(1.61159e-17 -3.41548e-18 2.61254e-21 1.79859e-17 3.67277e-22 1.79859e-17)
(1.5927e-17 3.35544e-18 5.23271e-21 1.88402e-17 7.35628e-22 1.80079e-17)
(9.21322e-18 1.30205e-19 0 6.29664e-18 0 7.12995e-18)
(1.5922e-17 3.15371e-18 -2.62165e-21 1.88412e-17 -3.68558e-22 1.88412e-17)
(1.67301e-17 -3.23408e-18 -5.24682e-21 1.54782e-17 -7.37611e-22 1.54782e-17)
(1.47814e-17 -1.74839e-18 -2.62483e-21 1.18587e-17 -3.69006e-22 1.18587e-17)
(1.65427e-17 1.87983e-18 7.8785e-21 1.32008e-17 1.10758e-21 1.32008e-17)
(6.79319e-18 -2.08997e-19 -2.62777e-21 9.30116e-18 -3.69418e-22 9.30116e-18)
(9.08991e-18 -1.69973e-18 0 8.25312e-18 0 8.25312e-18)
(8.72889e-18 1.71932e-18 -5.24058e-21 8.31208e-18 -7.36734e-22 9.14569e-18)
(1.00494e-17 0 1.04801e-20 7.54884e-18 1.47332e-21 7.54884e-18)
(8.30982e-18 -1.77467e-18 -1.31255e-21 9.14496e-18 -1.84522e-22 9.14496e-18)
(7.73798e-18 -1.46844e-18 1.31879e-21 7.73798e-18 1.85399e-22 8.57709e-18)
(2.644e-19 5.1898e-20 -2.02283e-20 2.644e-19 -2.84375e-21 2.644e-19)
(7.19346e-18 1.46135e-18 -6.56209e-22 8.02852e-18 -9.22515e-23 7.19346e-18)
(7.42148e-18 -1.56551e-18 0 7.42148e-18 0 7.42148e-18)
(9.98309e-19 2.10316e-19 1.05774e-20 9.98309e-19 1.487e-21 9.98309e-19)
(9.77556e-18 2.06209e-18 -3.24089e-21 9.77556e-18 -4.55613e-22 9.77556e-18)
(1.73727e-18 -2.70991e-19 3.40723e-21 2.14376e-18 4.78997e-22 1.73727e-18)
(1.84036e-17 0 0 1.38242e-17 0 1.38242e-17)
(9.58476e-18 2.92991e-19 -1.47354e-20 7.82681e-18 -2.07154e-21 7.24083e-18)
(1.25e-17 -2.36614e-18 0 1.42746e-17 0 1.48661e-17)
(2.59122e-17 4.87128e-18 1.4848e-20 2.47313e-17 2.08736e-21 2.35503e-17)
(1.45169e-17 -2.19057e-18 0 1.27644e-17 0 1.21803e-17)
(9.25593e-18 1.43462e-19 -2.88606e-20 6.96053e-18 -4.05729e-21 6.96053e-18)
(1.14728e-17 -2.24214e-18 4.22864e-20 1.42755e-17 5.94473e-21 1.37149e-17)
(6.50912e-19 -1.36603e-19 -1.37403e-20 6.50912e-19 -1.93165e-21 6.50912e-19)
(1.1914e-17 -2.19405e-18 1.33752e-20 1.1914e-17 1.88032e-21 1.08502e-17)
(1.05089e-17 2.17894e-18 1.93386e-20 1.10215e-17 2.71866e-21 1.15342e-17)
(1.12544e-17 1.84747e-18 -2.47772e-20 1.42103e-17 -3.48324e-21 1.42103e-17)
(2.48896e-17 -3.8359e-18 1.78079e-20 2.06406e-17 2.50348e-21 2.11127e-17)
(3.69217e-17 7.44577e-18 -2.26952e-20 3.69217e-17 -3.19054e-21 3.51167e-17)
(3.68798e-18 -2.95805e-19 5.40979e-21 4.97876e-18 7.60522e-22 4.97876e-18)
(1.48882e-17 -3.0694e-18 5.14564e-21 1.44789e-17 7.23387e-22 1.44789e-17)
(6.27398e-18 1.2135e-19 0 4.7207e-18 0 4.7207e-18)
(1.32493e-17 2.73375e-18 0 1.36168e-17 0 1.28817e-17)
(1.42925e-17 -2.71131e-18 0 1.30779e-17 0 1.30779e-17)
(3.36082e-18 1.37882e-19 -7.70501e-21 2.54374e-18 -1.08319e-21 2.54374e-18)
(1.36919e-17 -2.73417e-18 8.40152e-21 1.29506e-17 1.18111e-21 1.29506e-17)
(1.17407e-17 2.52682e-18 -1.05462e-21 1.24117e-17 -1.48261e-22 1.24117e-17)
(1.4384e-17 -2.71257e-18 0 1.27018e-17 0 1.33747e-17)
(1.33717e-17 2.63545e-18 0 1.25284e-17 0 1.25284e-17)
(1.27026e-17 -1.05652e-20 2.12543e-21 8.98365e-18 2.98798e-22 9.65983e-18)
(9.09899e-18 -6.35091e-20 -4.25875e-21 1.31636e-17 -5.98705e-22 1.24861e-17)
(6.82022e-18 -4.24049e-20 4.26533e-21 5.12403e-18 5.99631e-22 5.12403e-18)
(1.65631e-17 2.67498e-18 -4.27087e-21 1.41853e-17 -6.0041e-22 1.41853e-17)
(3.65672e-18 0 4.2757e-21 3.99678e-18 6.01089e-22 4.67691e-18)
(7.1147e-18 1.29786e-18 -2.14011e-21 6.09343e-18 -3.00862e-22 6.77427e-18)
(1.30334e-17 -2.81164e-18 6.42753e-21 1.43966e-17 9.03599e-22 1.3715e-17)
(8.83643e-18 1.36518e-18 4.29119e-21 7.47125e-18 6.03266e-22 7.47125e-18)
(7.09358e-18 -1.16932e-18 0 5.73292e-18 0 6.41325e-18)
(1.33619e-17 2.67968e-18 4.27838e-21 1.64243e-17 6.01465e-22 1.57438e-17)
(4.05028e-19 8.52663e-20 -5.36037e-21 4.05028e-19 -7.53574e-22 4.05028e-19)
(9.32061e-18 1.32834e-18 9.69769e-21 1.27486e-17 1.36333e-21 1.2063e-17)
(1.38914e-17 -2.84231e-18 8.53423e-21 1.32126e-17 1.19976e-21 1.38914e-17)
(2.51636e-18 0 -5.36549e-22 1.83358e-18 -7.54293e-23 2.51636e-18)
(7.83071e-18 1.45116e-18 5.36643e-22 7.83071e-18 7.54426e-23 7.1478e-18)
(2.25176e-17 1.72057e-19 -8.65325e-21 1.63236e-17 -1.2165e-21 1.70118e-17)
(7.08257e-18 -1.49402e-18 0 7.08257e-18 0 7.08257e-18)
(1.44904e-17 -1.38016e-18 -1.9832e-20 1.1533e-17 -2.78804e-21 1.13358e-17)
(1.00263e-17 -1.04503e-18 0 1.33703e-17 0 1.33703e-17)
(1.5323e-17 3.23221e-18 -2.16743e-20 1.5323e-17 -3.04703e-21 1.5323e-17)
(7.14395e-18 2.19304e-19 3.30883e-20 5.38952e-18 4.65163e-21 5.38952e-18)
(9.75941e-18 -1.87678e-18 -2.22091e-20 1.10842e-17 -3.12221e-21 1.15258e-17)
(4.85749e-18 -2.20326e-19 -1.10809e-20 7.06076e-18 -1.55777e-21 6.6201e-18)
(8.51927e-18 -1.63679e-18 1.09759e-20 1.07017e-17 1.54302e-21 1.02652e-17)
(8.1322e-18 -1.71869e-18 -3.24143e-20 8.56188e-18 -4.55689e-21 8.1322e-18)
(9.6027e-18 -1.58168e-18 -2.12126e-20 1.00245e-17 -2.98212e-21 1.12898e-17)
(3.82407e-18 -1.03283e-19 -1.03888e-20 2.58467e-18 -1.46048e-21 2.9978e-18)
(9.67354e-18 -1.0015e-19 0 7.26994e-18 0 7.26994e-18)
(1.41486e-17 2.99931e-18 0 1.45356e-17 0 1.41486e-17)
(6.06288e-18 -1.39737e-19 -1.87408e-20 4.94499e-18 -2.63463e-21 4.57235e-18)
(2.35877e-18 8.94201e-20 2.2486e-20 2.71645e-18 3.16114e-21 3.07413e-18)
(9.89051e-19 -8.55789e-20 4.30402e-21 1.33137e-18 6.0507e-22 1.33137e-18)
(6.28198e-18 -1.14339e-18 -1.23224e-20 5.62862e-18 -1.73231e-21 5.62862e-18)
(1.26162e-18 -1.94304e-20 2.73619e-20 9.50729e-19 3.84661e-21 9.50729e-19)