/*--------------------------------*- C++ -*----------------------------------*\
| =========                 |                                                 |
| \\      /  F ield         | OpenFOAM: The Open Source CFD Toolbox           |
|  \\    /   O peration     | Version:  2312                                  |
|   \\  /    A nd           | Website:  www.openfoam.com                      |
|    \\/     M anipulation  |                                                 |
\*---------------------------------------------------------------------------*/
FoamFile
{
    version     2.0;
    format      ascii;
    arch        "LSB;label=32;scalar=64";
    class       volSymmTensorField;
    location    "0";
    object      turbulenceProperties:devReff;
}
// * * * * * * * * * * * * * * * * * * * * * * * * * * * * * * * * * * * * * //

dimensions      [0 2 -2 0 0 0 0];

internalField   nonuniform List<symmTensor> 
11040
(
(0.176581 -0.00753158 -2.45438e-21 -0.0919305 -3.45044e-22 -0.0846501)
(0.16377 -0.0711137 8.19783e-20 -0.0941881 1.15247e-20 -0.0695816)
(0.144579 -0.108007 1.728e-19 -0.0894469 2.42926e-20 -0.0551321)
(0.126457 -0.127347 -9.80852e-21 -0.082812 -1.37891e-21 -0.0436448)
(0.110996 -0.137698 0 -0.0762958 0 -0.0347004)
(0.0981588 -0.143437 -8.71662e-21 -0.0704875 -1.2254e-21 -0.0276713)
(0.0874555 -0.146824 1.62737e-20 -0.0654502 2.2878e-21 -0.0220052)
(0.0783813 -0.149011 -1.28945e-19 -0.0610845 -1.81275e-20 -0.0172968)
(0.0705393 -0.150568 1.06096e-19 -0.0572651 1.49152e-20 -0.0132742)
(0.0636323 -0.151769 6.62683e-21 -0.0538774 9.31617e-22 -0.00975491)
(0.0574112 -0.152781 9.97831e-20 -0.0508164 1.40278e-20 -0.0065948)
(0.0517227 -0.153665 -9.32283e-20 -0.0480117 -1.31063e-20 -0.00371102)
(0.0464122 -0.154451 -8.72052e-20 -0.045388 -1.22595e-20 -0.00102418)
(0.0413779 -0.155143 -7.65454e-20 -0.0428932 -1.07609e-20 0.00151531)
(0.036556 -0.155718 0 -0.0404916 0 0.00393562)
(0.0318991 -0.156157 -4.47955e-21 -0.0381559 -6.29746e-22 0.00625684)
(0.0273676 -0.156441 3.35751e-20 -0.0358631 4.72007e-21 0.00849551)
(0.0229459 -0.156543 0 -0.0336016 0 0.0106557)
(0.0186055 -0.156452 -1.47094e-20 -0.031355 -2.06788e-21 0.0127495)
(0.0143479 -0.156146 -3.4371e-21 -0.0291212 -4.83196e-22 0.0147733)
(0.0101372 -0.155626 0 -0.0268817 0 0.0167444)
(0.00642861 -0.154793 2.94011e-20 -0.0248569 4.13328e-21 0.0184283)
(0.00358308 -0.153648 -1.63286e-21 -0.0232331 -2.29552e-22 0.01965)
(0.00115804 -0.152372 3.26068e-21 -0.0218073 4.58395e-22 0.0206493)
(-0.00106512 -0.15105 -5.21005e-20 -0.0204791 -7.32442e-21 0.0215442)
(-0.00309169 -0.149689 5.03953e-20 -0.0192465 7.08469e-21 0.0223382)
(-0.00495691 -0.148301 0 -0.0180934 0 0.0230503)
(-0.00667783 -0.146896 0 -0.017012 0 0.0236899)
(-0.00828063 -0.145482 0 -0.0159903 0 0.0242709)
(-0.00978005 -0.144065 5.00493e-20 -0.0150212 7.03606e-21 0.0248013)
(-0.0111957 -0.14265 1.61188e-21 -0.0140956 2.26602e-22 0.0252913)
(-0.0125416 -0.141241 0 -0.0132068 0 0.0257484)
(-0.0138265 -0.139841 1.0293e-19 -0.0123506 1.44701e-20 0.0261772)
(-0.0150691 -0.138455 0 -0.0115182 0 0.0265873)
(-0.0162872 -0.137085 1.02164e-19 -0.0107005 1.43625e-20 0.0269877)
(-0.0174766 -0.13573 0 -0.00989967 0 0.0273763)
(-0.0186379 -0.13439 0 -0.00911553 0 0.0277534)
(-0.0198 -0.133072 0 -0.008334 0 0.028134)
(-0.0209639 -0.131772 -1.98809e-22 -0.00755397 -2.79491e-23 0.0285179)
(-0.0221332 -0.130493 1.98546e-22 -0.00677403 2.79121e-23 0.0289072)
(-0.0232943 -0.12923 1.02337e-19 -0.00600064 1.43868e-20 0.029295)
(8.16415e-19 7.34773e-18 3.84937e-21 -1.63283e-18 5.41154e-22 8.16415e-19)
(2.81909e-17 2.48743e-18 3.90938e-21 -1.65829e-17 5.49591e-22 -1.1608e-17)
(1.19073e-17 0 -2.72691e-19 -3.40208e-18 -3.83356e-20 -8.50519e-18)
(1.64954e-18 -1.23715e-18 -1.16663e-19 -3.29908e-18 -1.64007e-20 1.64954e-18)
(1.57079e-18 -1.17809e-18 0 -3.14158e-18 0 1.57079e-18)
(1.18407e-17 -1.66511e-17 -1.11657e-19 -5.92037e-18 -1.56971e-20 -5.92037e-18)
(9.71115e-18 1.66477e-17 -1.04658e-19 -2.77461e-18 -1.4713e-20 -6.93653e-18)
(1.03821e-17 0 1.1014e-19 -5.19104e-18 1.54838e-20 -5.19104e-18)
(1.21375e-17 1.54754e-17 -9.1565e-20 -9.71004e-18 -1.28724e-20 -2.42751e-18)
(0 0 0 0 0 0)
(0 2.66047e-17 -9.12292e-20 0 -1.28252e-20 0)
(-4.02448e-18 0 1.51802e-19 2.01224e-18 2.13407e-20 2.01224e-18)
(1.88507e-18 3.5345e-19 7.99923e-20 1.88507e-18 1.12455e-20 -3.77013e-18)
(-3.53436e-18 4.2081e-17 5.83254e-20 1.76718e-18 8.19954e-21 1.76718e-18)
(-1.65731e-18 -2.01985e-17 -2.34425e-20 -1.65731e-18 -3.29561e-21 3.31462e-18)
(0 1.89436e-17 -1.46574e-20 0 -2.06057e-21 0)
(2.91481e-18 -3.51143e-17 -2.06148e-20 -3.64351e-18 -2.89808e-21 7.28701e-19)
(2.73133e-18 1.61319e-17 3.21953e-21 -3.41416e-18 4.5261e-22 6.82833e-19)
(-1.27859e-18 -1.52831e-17 -3.01425e-21 6.39293e-19 -4.2375e-22 6.39293e-19)
(-2.24185e-19 1.43409e-17 3.52342e-21 1.12093e-19 4.95332e-22 1.12093e-19)
(3.34945e-18 2.69002e-17 -1.05284e-20 -1.67472e-18 -1.4801e-21 -1.67472e-18)
(-6.82276e-18 -2.13211e-19 -2.41268e-20 6.82276e-18 -3.39181e-21 0)
(4.54803e-18 3.19783e-19 2.14438e-20 -5.68504e-18 3.01463e-21 1.13701e-18)
(2.27098e-18 -2.12904e-19 4.28304e-20 -1.13549e-18 6.0212e-21 -1.13549e-18)
(2.26836e-18 -4.25317e-19 4.54547e-20 -1.13418e-18 6.39013e-21 -1.13418e-18)
(0 -4.24744e-19 -4.53934e-20 0 -6.38152e-21 0)
(-6.78584e-18 -2.12057e-19 0 3.39292e-18 0 3.39292e-18)
(2.25838e-18 1.41855e-17 0 -1.12919e-18 0 -1.12919e-18)
(-2.25472e-18 -1.39511e-17 -4.25237e-20 1.12736e-18 -5.97809e-21 1.12736e-18)
(4.50224e-18 0 -4.1129e-20 -5.6278e-18 -5.78202e-21 1.12556e-18)
(0 1.26437e-17 -4.37173e-20 0 -6.14588e-21 0)
(-2.24495e-18 1.38906e-17 -8.46789e-20 4.4899e-18 -1.19044e-20 -2.24495e-18)
(-4.48648e-18 -1.38801e-17 -8.46145e-20 2.24324e-18 -1.18953e-20 2.24324e-18)
(-4.46137e-18 1.33841e-17 0 2.23068e-18 0 2.23068e-18)
(2.22703e-18 -1.41973e-17 0 -4.45405e-18 0 2.22703e-18)
(4.45659e-18 -4.17806e-19 -8.40507e-20 -2.2283e-18 -1.18161e-20 -2.2283e-18)
(2.23624e-18 -1.34175e-17 0 -4.47249e-18 0 2.23624e-18)
(-2.20934e-18 -1.40845e-17 0 -2.20934e-18 0 4.41868e-18)
(-1.1098e-17 1.29015e-17 0 8.87842e-18 0 2.21961e-18)
(1.10841e-18 0 0 -2.21682e-18 0 1.10841e-18)
(-1.1159e-18 1.38093e-17 -1.68366e-19 2.2318e-18 -2.36693e-20 -1.1159e-18)
(6.35456e-19 -5.7191e-18 -2.39692e-20 -1.27091e-18 -3.36965e-21 6.35456e-19)
(-1.94331e-18 -3.88663e-18 -1.58819e-19 3.88663e-18 -2.23272e-20 -1.94331e-18)
(-1.33302e-18 1.79957e-17 1.13132e-19 2.66603e-18 1.59044e-20 -1.33302e-18)
(7.79853e-18 1.75467e-17 9.80528e-20 0 1.37845e-20 -7.79853e-18)
(-1.24467e-18 -9.335e-19 -9.3897e-20 2.48933e-18 -1.32003e-20 -1.24467e-18)
(7.07392e-18 0 0 0 0 -7.07392e-18)
(-8.8821e-18 -1.41558e-17 8.37576e-20 4.44105e-18 1.17749e-20 4.44105e-18)
(0 0 1.96672e-20 0 2.76487e-21 0)
(-9.7867e-18 2.20201e-17 -1.84576e-20 7.82936e-18 -2.59481e-21 1.95734e-18)
(1.29048e-17 2.28138e-17 0 -3.68708e-18 0 -9.21771e-18)
(-1.7425e-18 -2.15634e-17 0 -1.7425e-18 0 3.48499e-18)
(-3.26878e-18 1.89998e-17 -1.23297e-19 1.63439e-18 -1.73335e-20 1.63439e-18)
(4.60147e-18 -1.78307e-17 0 -4.60147e-18 0 0)
(2.88013e-18 -1.70108e-17 0 -1.44007e-18 0 -1.44007e-18)
(0 -2.53548e-19 2.55034e-20 0 3.58533e-21 0)
(-3.80888e-18 1.47594e-17 1.79587e-20 0 2.52469e-21 3.80888e-18)
(5.95775e-18 7.81955e-19 5.61812e-21 -1.19155e-18 7.89809e-22 -4.7662e-18)
(-3.35233e-18 -1.0476e-19 2.10748e-20 3.35233e-18 2.96275e-21 0)
(4.18768e-18 1.24158e-17 9.87238e-21 -2.09384e-18 1.38788e-21 -2.09384e-18)
(-8.57156e-19 2.34876e-17 -5.19617e-21 -2.51024e-18 -7.3049e-22 3.3674e-18)
(1.37284e-18 5.14814e-19 1.7261e-20 -6.86418e-19 2.4266e-21 -6.86418e-19)
(-3.72944e-18 2.17648e-17 8.7921e-21 4.6618e-18 1.23602e-21 -9.32361e-19)
(-9.32511e-19 2.26425e-17 -1.31903e-20 4.66256e-19 -1.85432e-21 4.66256e-19)
(1.863e-18 -1.74657e-19 -3.294e-20 -9.31502e-19 -4.63079e-21 -9.31502e-19)
(-1.86129e-18 -3.48991e-19 -3.72976e-20 -1.86129e-18 -5.24338e-21 3.72257e-18)
(1.85918e-18 -2.21359e-17 3.50639e-20 -9.29592e-19 4.92938e-21 -9.29592e-19)
(7.42723e-18 1.1489e-17 0 -6.49883e-18 0 -9.28404e-19)
(-1.85423e-18 1.11254e-17 0 3.70847e-18 0 -1.85423e-18)
(1.85156e-18 2.20451e-17 3.49201e-20 1.85156e-18 4.90915e-21 -3.70311e-18)
(0 3.46669e-19 -3.487e-20 0 -4.90212e-21 0)
(5.53929e-18 -1.07324e-17 6.96468e-20 -2.76965e-18 9.79113e-21 -2.76965e-18)
(3.68877e-18 3.45822e-19 0 -1.84438e-18 0 -1.84438e-18)
(0 1.03681e-17 0 0 0 0)
(0 3.43717e-19 7.02266e-20 0 9.87263e-21 0)
(-9.15184e-18 1.09822e-17 -7.01197e-20 7.32147e-18 -9.85761e-21 1.83037e-18)
(-9.15801e-18 -3.43425e-19 -5.39746e-22 1.8316e-18 -7.58789e-23 7.32641e-18)
(7.3532e-18 0 1.08344e-21 -3.6766e-18 1.52313e-22 -3.6766e-18)
(-1.81641e-18 1.1239e-17 6.79791e-20 3.63282e-18 9.55668e-21 -1.81641e-18)
(-1.82499e-18 -1.12921e-17 -2.68898e-22 -1.82499e-18 -3.78024e-23 3.64997e-18)
(6.37999e-18 2.15325e-17 6.90261e-20 -1.82285e-18 9.70387e-21 -4.55713e-18)
(9.17643e-18 -1.10117e-17 6.92265e-20 -7.34114e-18 9.73203e-21 -1.83529e-18)
(1.56999e-17 -5.88747e-18 2.31327e-20 -7.84995e-18 3.25205e-21 -7.84995e-18)
(-1.60686e-17 0 7.10279e-20 8.03432e-18 9.98527e-21 8.03432e-18)
(1.65885e-17 0 -7.82142e-20 -8.29425e-18 -1.09956e-20 -8.29425e-18)
(0 -1.5255e-18 -7.67218e-20 0 -1.07857e-20 0)
(0 0 7.39286e-20 0 1.03931e-20 0)
(-7.47003e-18 -7.00315e-19 8.80524e-20 3.73502e-18 1.23786e-20 3.73502e-18)
(5.30403e-18 2.18791e-17 -1.66722e-20 1.00974e-33 -2.34382e-21 -5.30403e-18)
(-1.6683e-18 -1.00098e-17 0 3.33661e-18 0 -1.6683e-18)
(6.2877e-18 -5.89472e-19 0 -3.14385e-18 0 -3.14385e-18)
(-4.45628e-18 -1.78251e-17 -5.60299e-20 0 -7.87683e-21 4.45628e-18)
(9.85508e-18 1.68944e-17 0 -2.81574e-18 0 -7.03934e-18)
(-9.26659e-18 1.58856e-17 4.99333e-20 6.61899e-18 7.01975e-21 2.6476e-18)
(-4.97981e-18 -2.33428e-19 0 6.22476e-18 0 -1.24495e-18)
(4.68374e-18 1.44903e-17 4.41673e-20 -2.34187e-18 6.20915e-21 -2.34187e-18)
(0 -1.32144e-17 0 0 0 0)
(-3.10576e-18 0 -1.95247e-20 3.10576e-18 -2.74483e-21 0)
(4.86334e-18 -1.13073e-17 -2.75166e-20 -2.43167e-18 -3.86835e-21 -2.43167e-18)
(-9.13051e-19 -1.71197e-19 0 4.56526e-19 0 4.56526e-19)
(-3.42455e-18 -1.04342e-17 -8.07333e-21 1.71228e-18 -1.13497e-21 1.71228e-18)
(2.60544e-18 -1.92496e-17 -3.77986e-21 -1.30272e-18 -5.31383e-22 -1.30272e-18)
(0 1.80925e-17 -3.53369e-21 2.24838e-18 -4.96774e-22 -2.24838e-18)
(2.29111e-18 -1.84721e-17 -1.44033e-20 -3.43667e-18 -2.02486e-21 1.14556e-18)
(0 -1.81945e-17 0 0 0 0)
(7.63476e-19 0 -2.51983e-20 -2.67217e-18 -3.54245e-21 1.90869e-18)
(-3.05195e-18 -1.85978e-17 -3.59746e-21 1.52597e-18 -5.05739e-22 1.52597e-18)
(-1.52465e-18 3.68775e-17 -6.11037e-20 3.0493e-18 -8.59011e-21 -1.52465e-18)
(-3.04615e-18 0 3.59062e-21 3.80769e-18 5.04779e-22 -7.61538e-19)
(-4.56393e-18 -1.81131e-17 -2.86917e-20 2.28197e-18 -4.03356e-21 2.28197e-18)
(1.51944e-18 -1.80908e-17 2.86564e-20 -3.03888e-18 4.02859e-21 1.51944e-18)
(-3.03512e-18 8.82083e-18 5.7242e-20 3.79391e-18 8.04723e-21 -7.58781e-19)
(-3.03163e-18 8.81067e-18 -2.8588e-20 1.51581e-18 -4.01898e-21 1.51581e-18)
(-4.54318e-18 -9.37031e-18 1.14245e-19 2.27159e-18 1.60609e-20 2.27159e-18)
(3.02737e-18 5.67631e-19 1.78424e-21 -1.51368e-18 2.50833e-22 -1.51368e-18)
(0 -9.59862e-18 -1.77479e-21 0 -2.49505e-22 0)
(7.51795e-18 -8.45769e-18 8.86172e-22 -6.01436e-18 1.2458e-22 -1.50359e-18)
(0 -9.59305e-18 -1.77376e-21 0 -2.4936e-22 0)
(-7.5523e-18 9.06276e-18 8.90221e-22 6.04184e-18 1.25149e-22 1.51046e-18)
(5.97079e-18 5.59761e-19 4.39876e-22 -2.98539e-18 6.18389e-23 -2.98539e-18)
(-3.74971e-18 2.81228e-19 -4.41994e-22 2.99977e-18 -6.21366e-23 7.49942e-19)
(-2.24743e-18 5.61856e-19 0 -2.52435e-34 0 2.24743e-18)
(0 -9.05168e-18 0 0 0 0)
(-1.20175e-17 -1.12664e-18 0 6.00874e-18 0 6.00874e-18)
(1.27383e-17 -9.26424e-18 1.45602e-20 -6.94818e-18 2.04691e-21 -5.79015e-18)
(1.19976e-17 1.07978e-17 1.20679e-19 -4.79903e-18 1.69653e-20 -7.19855e-18)
(-7.89678e-19 8.29162e-18 1.34039e-19 1.57936e-18 1.88435e-20 -7.89678e-19)
(-4.59674e-18 1.14919e-18 -1.4449e-19 0 -2.03128e-20 4.59674e-18)
(-1.46956e-18 1.81857e-17 5.54312e-20 2.93911e-18 7.79266e-21 -1.46956e-18)
(0 -8.92221e-18 0 0 0 0)
(5.31032e-18 9.95685e-19 0 -2.65516e-18 0 -2.65516e-18)
(0 -1.50789e-17 4.73978e-20 0 6.6633e-21 0)
(0 0 8.99206e-20 0 1.26413e-20 0)
(0 0 4.27486e-20 0 6.00971e-21 0)
(3.20619e-18 -1.20232e-17 0 0 0 -3.20619e-18)
(0 7.55664e-19 0 0 0 0)
(2.84891e-18 1.78057e-19 -4.4775e-20 -2.84891e-18 -6.29458e-21 0)
(-1.78936e-18 -1.10717e-17 8.43679e-21 8.94682e-19 1.18607e-21 8.94682e-19)
(1.68479e-18 1.05826e-17 -3.17748e-20 -8.42393e-19 -4.46699e-21 -8.42393e-19)
(-3.96257e-18 9.51018e-18 1.49467e-20 3.17006e-18 2.10125e-21 7.92515e-19)
(-3.72395e-18 8.23924e-18 0 4.09635e-18 0 -3.72395e-19)
(0 -1.31074e-19 0 0 0 0)
(-4.91367e-19 -1.68907e-19 0 2.45683e-19 0 2.45683e-19)
(-2.45181e-18 1.72393e-19 5.7801e-21 1.22591e-18 8.12581e-22 1.22591e-18)
(4.99845e-18 2.34302e-19 1.17838e-20 -4.37364e-18 1.65659e-21 -6.24806e-19)
(-3.12673e-18 -2.93131e-19 0 3.43941e-18 0 -3.12673e-19)
(2.52435e-34 -1.17204e-19 2.35781e-20 1.87526e-18 3.31467e-21 -1.87526e-18)
(-2.52435e-34 3.51505e-19 4.41956e-20 -1.87469e-18 6.21313e-21 1.87469e-18)
(-1.24911e-18 -1.47551e-17 2.94475e-20 6.24553e-19 4.1398e-21 6.24553e-19)
(-2.49637e-18 1.46271e-17 1.76554e-20 1.24818e-18 2.48204e-21 1.24818e-18)
(6.2354e-18 7.01483e-19 2.64597e-20 -4.98832e-18 3.71978e-21 -1.24708e-18)
(-3.73759e-18 7.00799e-18 -2.34968e-20 1.8688e-18 -3.30324e-21 1.8688e-18)
(0 -7.35106e-18 -4.69469e-20 0 -6.59991e-21 0)
(-1.24347e-18 -2.3315e-19 0 6.21734e-19 0 6.21734e-19)
(-1.24256e-18 6.98941e-19 -4.83337e-20 2.48512e-18 -6.79488e-21 -1.24256e-18)
(1.24222e-18 -2.32916e-19 1.46425e-21 -2.48443e-18 2.05848e-22 1.24222e-18)
(-3.70766e-18 7.18358e-18 0 3.70766e-18 0 0)
(4.93757e-18 -4.62897e-19 0 -2.46878e-18 0 -2.46878e-18)
(-2.47113e-18 6.95007e-18 4.66053e-20 1.23557e-18 6.55189e-21 1.23557e-18)
(0 0 0 0 0 0)
(9.80815e-18 -6.4366e-18 -4.62451e-20 -8.58213e-18 -6.50125e-21 -1.22602e-18)
(-3.69617e-18 -4.62021e-19 0 3.69617e-18 0 0)
(-3.69269e-18 7.61617e-18 0 3.69269e-18 0 0)
(0 0 4.67533e-20 0 6.5727e-21 0)
(0 -5.98235e-18 0 0 0 0)
(1.02942e-17 -3.52943e-18 0 -6.47062e-18 0 -3.82355e-18)
(-9.17578e-18 6.42305e-18 -4.61477e-20 3.67031e-18 -6.48756e-21 5.50547e-18)
(-1.09462e-17 8.20963e-18 -6.88144e-20 7.29745e-18 -9.67411e-21 3.64872e-18)
(5.94321e-19 6.24037e-18 1.12088e-19 -1.18864e-18 1.57576e-20 5.94321e-19)
(8.6113e-18 7.75017e-18 -8.66176e-20 -3.44452e-18 -1.21769e-20 -5.16678e-18)
(-6.60427e-18 1.27958e-17 4.15185e-20 6.60427e-18 5.83678e-21 0)
(-1.05025e-18 -1.22092e-17 -5.94227e-20 2.1005e-18 -8.35379e-21 -1.05025e-18)
(-8.9928e-18 -3.747e-19 0 5.9952e-18 0 2.9976e-18)
(5.71163e-18 -1.10663e-17 -5.38603e-20 -5.71163e-18 -7.57181e-21 0)
(-8.17587e-18 2.1121e-17 -3.42657e-20 5.45058e-18 -4.81716e-21 2.72529e-18)
(8.59528e-19 -2.03064e-17 0 -1.71906e-18 0 8.59528e-19)
(-1.6253e-18 -6.09486e-19 1.53264e-20 8.12649e-19 2.15463e-21 8.12649e-19)
(-1.53563e-18 8.7819e-18 -2.89618e-20 3.07127e-18 -4.07153e-21 -1.53563e-18)
(-2.17473e-18 0 5.46867e-20 -2.52435e-34 7.68799e-21 2.17473e-18)
(6.83779e-19 8.58997e-18 1.2896e-20 6.83779e-19 1.81295e-21 -1.36756e-18)
(5.15439e-18 -7.61079e-18 1.21514e-20 -4.5101e-18 1.70827e-21 -6.44299e-19)
(1.81897e-18 -1.70528e-19 -1.14352e-20 -2.72845e-18 -1.60758e-21 9.09484e-19)
(-1.13953e-18 0 0 5.69767e-19 0 5.69767e-19)
(5.34535e-19 -1.29165e-17 0 -1.87087e-18 0 1.33634e-18)
(-6.25696e-19 -2.69832e-19 2.36011e-21 1.81452e-18 3.3179e-22 -1.18882e-18)
(1.02087e-18 1.23223e-17 -4.81339e-21 1.02087e-18 -6.76679e-22 -2.04175e-18)
(5.11114e-19 3.83336e-19 0 -1.7889e-18 0 1.27779e-18)
(-1.53338e-18 -5.75016e-19 -4.81988e-21 7.66688e-19 -6.77591e-22 7.66688e-19)
(-1.02235e-18 -1.23641e-17 -1.92815e-20 2.04471e-18 -2.71064e-21 -1.02235e-18)
(2.04435e-18 2.87487e-19 4.81953e-21 -1.02218e-18 6.77541e-22 -1.02218e-18)
(5.10891e-18 -1.21656e-17 -1.4453e-20 -4.08713e-18 -2.03184e-21 -1.02178e-18)
(-1.02122e-18 1.25418e-17 0 2.04243e-18 0 -1.02122e-18)
(-2.04107e-18 -6.02754e-18 -4.81179e-21 1.02054e-18 -6.76454e-22 1.02054e-18)
(-1.01981e-18 9.56075e-20 1.92335e-20 -1.01981e-18 2.7039e-21 2.03963e-18)
(-1.01914e-18 0 -2.4026e-21 2.03828e-18 -3.37764e-22 -1.01914e-18)
(0 -5.92091e-18 2.40145e-21 0 3.37602e-22 0)
(-1.0186e-18 -5.92063e-18 0 5.09302e-19 0 5.09302e-19)
(5.06828e-18 -1.21639e-17 -4.06245e-20 -4.05463e-18 -5.7111e-21 -1.01366e-18)
(-7.08849e-18 5.12649e-18 3.58093e-21 5.0632e-18 5.03416e-22 2.02528e-18)
(2.02758e-18 -6.27283e-18 0 -1.01379e-18 0 -1.01379e-18)
(-7.12532e-18 -5.7257e-19 -4.07947e-20 5.08951e-18 -5.73502e-21 2.03581e-18)
(8.05068e-18 6.60407e-18 5.93104e-22 -4.02534e-18 8.33801e-23 -4.02534e-18)
(0 6.44784e-18 5.96104e-22 0 8.38019e-23 0)
(-1.51593e-18 -6.06374e-18 -3.81204e-20 0 -5.35907e-21 1.51593e-18)
(-4.07117e-18 -7.63344e-19 -3.83908e-20 2.03558e-18 -5.39708e-21 2.03558e-18)
(-4.28183e-19 0 -8.07547e-21 8.56365e-19 -1.13527e-21 -4.28183e-19)
(-1.42113e-17 -6.66153e-19 4.18785e-20 7.10563e-18 5.88739e-21 7.10563e-18)
(-6.95427e-18 -5.56341e-18 -3.49751e-20 2.78171e-18 -4.91688e-21 4.17256e-18)
(7.42746e-18 -5.57059e-18 0 -3.71373e-18 0 -3.71373e-18)
(-9.14435e-19 6.85827e-19 0 1.82887e-18 0 -9.14435e-19)
(1.33516e-18 -1.06813e-17 3.35746e-20 -2.67032e-18 4.72e-21 1.33516e-18)
(3.43784e-18 -9.66893e-18 -3.24186e-20 -1.71892e-18 -4.55749e-21 -1.71892e-18)
(-4.127e-18 -6.1905e-19 6.22677e-20 3.3016e-18 8.75375e-21 8.25399e-19)
(3.15921e-18 0 2.97912e-20 -1.57961e-18 4.18812e-21 -1.57961e-18)
(-3.78072e-18 0 -2.85215e-20 3.02458e-18 -4.00963e-21 7.56144e-19)
(2.8984e-18 0 2.73317e-20 -1.4492e-18 3.84236e-21 -1.4492e-18)
(-6.88234e-19 1.67757e-17 -2.596e-20 1.37647e-18 -3.64952e-21 -6.88234e-19)
(0 2.4482e-19 2.46255e-20 0 3.46191e-21 0)
(1.8558e-18 7.42318e-18 0 -1.8558e-18 0 0)
(5.85467e-19 -7.13538e-18 -4.41673e-20 5.85467e-19 -6.20915e-21 -1.17093e-18)
(2.2137e-18 -1.34897e-17 0 -2.76712e-18 0 5.53424e-19)
(-1.04487e-18 -6.26919e-18 -1.9706e-20 5.22433e-19 -2.77032e-21 5.22433e-19)
(-9.84856e-19 -2.76991e-19 9.28713e-21 1.96971e-18 1.30561e-21 -9.84856e-19)
(1.85355e-18 0 -1.74789e-20 -9.26775e-19 -2.45722e-21 -9.26775e-19)
(8.70537e-19 8.16129e-20 4.10455e-21 -4.35269e-19 5.77029e-22 -4.35269e-19)
(-8.92592e-19 7.65079e-20 1.9239e-21 4.46296e-19 2.70467e-22 4.46296e-19)
(-2.2896e-18 -1.95136e-19 -3.9256e-21 1.1448e-18 -5.5187e-22 1.1448e-18)
(-2.9195e-18 3.91005e-20 -7.86591e-21 2.71097e-18 -1.10581e-21 2.08536e-19)
(1.2519e-18 3.52096e-19 0 6.25948e-19 0 -1.87784e-18)
(-3.75789e-18 1.98855e-17 -7.8748e-21 3.13157e-18 -1.10706e-21 6.26314e-19)
(4.17659e-18 -1.01021e-17 7.87699e-21 -3.34127e-18 1.10737e-21 -8.35318e-19)
(-8.35349e-19 1.02591e-17 -3.93864e-21 4.17675e-19 -5.53704e-22 4.17675e-19)
(-1.67043e-18 -1.04141e-17 -1.18141e-20 8.35217e-19 -1.66085e-21 8.35217e-19)
(1.66994e-18 3.13113e-19 0 -8.34968e-19 0 -8.34968e-19)
(-2.504e-18 9.85949e-18 1.57417e-20 1.252e-18 2.213e-21 1.252e-18)
(0 4.92807e-18 1.18023e-20 1.25157e-18 1.65919e-21 -1.25157e-18)
(-8.34233e-19 5.0054e-18 1.96669e-20 4.17116e-19 2.76482e-21 4.17116e-19)
(-8.34426e-19 4.53719e-18 -1.57372e-20 4.17213e-19 -2.21237e-21 4.17213e-19)
(3.32246e-18 5.13943e-18 -3.13306e-20 8.30615e-19 -4.40453e-21 -4.15307e-18)
(0 -4.97993e-18 -3.13069e-20 -2.48996e-18 -4.40121e-21 2.48996e-18)
(-5.8178e-18 -1.55834e-19 2.939e-20 4.15557e-18 4.13173e-21 1.66223e-18)
(0 4.85137e-18 3.34502e-20 0 4.70251e-21 0)
(0 -1.00593e-17 3.11329e-20 0 4.37674e-21 0)
(-3.31873e-18 -5.13366e-18 3.12954e-20 1.65937e-18 4.39959e-21 1.65937e-18)
(4.97504e-18 5.44146e-18 0 -2.48752e-18 0 -2.48752e-18)
(-4.17582e-19 -3.13187e-19 -3.15022e-20 8.35165e-19 -4.42866e-21 -4.17582e-19)
(6.37553e-19 0 -3.00604e-21 -1.27511e-18 -4.22597e-22 6.37553e-19)
(5.64658e-18 6.97518e-18 -2.50573e-20 -3.32152e-18 -3.52262e-21 -2.32506e-18)
(-3.4811e-19 -8.87682e-18 2.62613e-20 6.96221e-19 3.69187e-21 -3.4811e-19)
(-4.91594e-18 4.21366e-18 2.64897e-20 1.40455e-18 3.72399e-21 3.51138e-18)
(5.92706e-18 0 5.2604e-20 -3.4865e-18 7.3952e-21 -2.44055e-18)
(-1.36856e-18 4.10567e-18 -5.16216e-20 2.73712e-18 -7.2571e-21 -1.36856e-18)
(5.32667e-18 0 -7.53452e-20 -2.66333e-18 -1.05922e-20 -2.66333e-18)
(0 4.82987e-19 -4.85817e-20 0 -6.82974e-21 0)
(2.48051e-18 -7.20899e-18 0 -1.24026e-18 0 -1.24026e-18)
(5.96958e-19 6.71578e-18 4.50342e-20 -1.19392e-18 6.33102e-21 5.96958e-19)
(-1.72425e-18 -7.32806e-18 -6.50383e-20 0 -9.14324e-21 1.72425e-18)
(-2.74147e-18 0 0 2.19317e-18 0 5.48294e-19)
(4.17667e-18 3.91563e-19 5.90786e-20 -2.08834e-18 8.30542e-21 -2.08834e-18)
(9.92639e-19 -5.95583e-18 -3.74421e-20 -1.98528e-18 -5.2637e-21 9.92639e-19)
(2.35539e-18 5.65295e-18 -1.7769e-20 -4.71079e-19 -2.49801e-21 -1.88432e-18)
(-2.67841e-18 1.07136e-17 5.05144e-20 2.67841e-18 7.10144e-21 0)
(-2.11157e-18 4.59266e-18 1.59296e-20 1.68926e-18 2.23942e-21 4.22314e-19)
(3.19048e-18 4.48662e-19 -7.52151e-21 -2.79167e-18 -1.05739e-21 -3.98811e-19)
(-4.13503e-18 -2.81934e-19 -7.08964e-21 2.06751e-18 -9.96679e-22 2.06751e-18)
(3.53614e-18 2.98362e-19 -1.66728e-20 -1.76807e-18 -2.3439e-21 -1.76807e-18)
(-5.39371e-19 2.45051e-19 2.50399e-20 2.69686e-19 3.52018e-21 2.69686e-19)
(5.08229e-19 -8.17932e-18 -6.39009e-21 -2.54115e-19 -8.98335e-22 -2.54115e-19)
(-1.01903e-18 -1.59223e-19 -6.40625e-21 -5.09514e-19 -9.00606e-22 1.52854e-18)
(2.38051e-18 8.41679e-18 0 -1.19025e-18 0 -1.19025e-18)
(-2.72374e-18 -6.38377e-20 -6.42117e-21 2.38327e-18 -9.02704e-22 3.40468e-19)
(-2.04448e-18 -1.2778e-19 6.42643e-21 1.02224e-18 9.03443e-22 1.02224e-18)
(6.13676e-18 1.91774e-19 -6.42991e-21 -3.06838e-18 -9.03933e-22 -3.06838e-18)
(-4.77453e-18 -8.18492e-18 0 2.38727e-18 0 2.38727e-18)
(4.77522e-18 3.83723e-19 1.28657e-20 -3.41087e-18 1.8087e-21 -1.36435e-18)
(-4.77546e-18 -5.75614e-19 3.21659e-21 2.38773e-18 4.52197e-22 2.38773e-18)
(2.04672e-18 -3.77365e-18 -3.21674e-20 -1.02336e-18 -4.52218e-21 -1.02336e-18)
(-6.14127e-18 3.96624e-18 -9.65197e-21 3.07064e-18 -1.3569e-21 3.07064e-18)
(6.82749e-19 4.35252e-18 9.65741e-21 6.82749e-19 1.35766e-21 -1.3655e-18)
(2.71947e-18 -1.27475e-19 2.56444e-20 -2.37954e-18 3.60516e-21 -3.39934e-19)
(6.79557e-19 1.27417e-19 3.20409e-21 6.79557e-19 4.50439e-22 -1.35911e-18)
(2.04198e-18 0 0 -2.04198e-18 0 0)
(0 -4.10223e-18 0 0 0 0)
(-2.02898e-18 7.73549e-18 -7.97214e-22 2.02898e-18 -1.12074e-22 0)
(1.35997e-18 -4.20742e-18 -2.48474e-20 -6.79987e-19 -3.49311e-21 -6.79987e-19)
(0 0 4.00606e-22 0 5.63182e-23 0)
(0 5.13552e-19 2.54245e-20 0 3.57424e-21 0)
(0 0 2.21714e-21 0 3.11691e-22 0)
(-4.92195e-19 -7.38293e-19 0 9.84391e-19 0 -4.92195e-19)
(7.76793e-19 6.99114e-18 3.90672e-20 -1.55359e-18 5.49217e-21 7.76793e-19)
(4.99943e-18 3.94692e-19 0 -3.68379e-18 0 -1.31564e-18)
(-3.95145e-18 -3.95145e-19 0 1.58058e-18 0 2.37087e-18)
(0 0 0 0 0 0)
(-8.18386e-18 -1.26594e-17 3.85866e-20 4.09193e-18 5.4246e-21 4.09193e-18)
(3.98776e-18 -6.35549e-18 0 -1.99388e-18 0 -1.99388e-18)
(-4.83325e-19 1.15998e-17 0 9.66651e-19 0 -4.83325e-19)
(2.34039e-18 3.51059e-19 7.06231e-20 -1.87231e-18 9.92838e-21 -4.68078e-19)
(0 1.69886e-19 1.70881e-20 0 2.40229e-21 0)
(0 -1.62863e-19 -4.91453e-20 0 -6.90897e-21 0)
(-8.30649e-18 4.20516e-18 -1.56659e-20 4.15325e-18 -2.20236e-21 4.15325e-18)
(7.9263e-18 7.43091e-19 1.49489e-20 -3.96315e-18 2.10155e-21 -3.96315e-18)
(-4.15136e-18 -4.81181e-18 -1.42353e-20 1.50959e-18 -2.00123e-21 2.64178e-18)
(1.43462e-18 -4.84183e-18 -1.35283e-20 -7.17308e-19 -1.90185e-21 -7.17308e-19)
(-6.80309e-19 5.7401e-19 -2.56611e-20 -6.80309e-19 -3.6075e-21 1.36062e-18)
(1.28773e-18 7.60564e-18 3.0358e-20 -6.43864e-19 4.2678e-21 -6.43864e-19)
(3.04036e-19 5.70067e-20 -5.73407e-21 -1.06413e-18 -8.06111e-22 7.60089e-19)
(-2.86492e-19 6.82208e-18 0 1.43246e-19 0 1.43246e-19)
(-5.38648e-19 6.19235e-18 -1.26985e-21 2.69324e-19 -1.78519e-22 2.69324e-19)
(-1.44429e-18 7.09249e-20 2.5942e-21 1.54745e-18 3.64699e-22 -1.03163e-19)
(-2.76011e-18 -1.55256e-19 -2.60277e-21 1.38006e-18 -3.65903e-22 1.38006e-18)
(-2.76536e-19 -2.07402e-19 0 1.38268e-19 0 1.38268e-19)
(-2.49343e-18 -6.83095e-18 5.22508e-21 1.24671e-18 7.34555e-22 1.24671e-18)
(-3.32943e-18 6.71088e-18 1.04654e-20 2.49707e-18 1.47126e-21 8.32357e-19)
(3.33324e-18 2.60409e-19 0 -2.49993e-18 0 -8.33309e-19)
(-3.89219e-18 6.30743e-18 -5.24329e-21 1.94609e-18 -7.37116e-22 1.94609e-18)
(1.6692e-18 -6.46815e-18 -1.04936e-20 -8.346e-19 -1.47522e-21 -8.346e-19)
(3.89692e-18 -3.49679e-18 -5.24967e-21 -1.94846e-18 -7.38012e-22 -1.94846e-18)
(4.45588e-18 3.75965e-18 1.5757e-20 -2.22794e-18 2.21516e-21 -2.22794e-18)
(-3.34395e-18 -4.17994e-19 -5.25554e-21 1.67198e-18 -7.38837e-22 1.67198e-18)
(1.11572e-18 -3.39947e-18 0 -5.57862e-19 0 -5.57862e-19)
(0 3.43863e-18 -1.04812e-20 -8.33608e-19 -1.47347e-21 8.33608e-19)
(3.3341e-18 0 2.09602e-20 -1.66705e-18 2.94664e-21 -1.66705e-18)
(-1.11352e-18 -3.54935e-18 -2.62511e-21 5.5676e-19 -3.69044e-22 5.5676e-19)
(-5.59406e-19 -2.93688e-18 2.63758e-21 -5.59406e-19 3.70798e-22 1.11881e-18)
(0 1.03796e-19 -4.04566e-20 0 -5.68749e-21 0)
(-5.56703e-19 2.92269e-18 -1.31242e-21 1.11341e-18 -1.84503e-22 -5.56703e-19)
(0 -3.13103e-18 0 0 0 0)
(0 4.20632e-19 2.11548e-20 0 2.974e-21 0)
(0 4.12418e-18 -6.48178e-21 0 -9.11226e-22 0)
(-2.70991e-19 -5.41981e-19 6.81446e-21 5.41981e-19 9.57994e-22 -2.70991e-19)
(6.10587e-18 0 0 -3.05293e-18 0 -3.05293e-18)
(2.73458e-18 5.85982e-19 -2.94708e-20 -7.81309e-19 -4.14307e-21 -1.95327e-18)
(-2.76049e-18 -4.73228e-18 0 7.88713e-19 0 1.97178e-18)
(2.36183e-18 9.74257e-18 2.96959e-20 0 4.17473e-21 -2.36183e-18)
(2.72604e-18 -4.38114e-18 0 -7.78869e-19 0 -1.94717e-18)
(3.06053e-18 2.86925e-19 -5.77212e-20 -1.53026e-18 -8.11459e-21 -1.53026e-18)
(-3.36321e-18 -4.48427e-18 8.45728e-20 2.24214e-18 1.18895e-20 1.12107e-18)
(0 -2.73206e-19 -2.74807e-20 0 -3.8633e-21 0)
(7.09188e-19 -4.3881e-18 2.67504e-20 7.09188e-19 3.76063e-21 -1.41838e-18)
(-1.02538e-18 4.35787e-18 3.86771e-20 -1.26218e-34 5.43733e-21 1.02538e-18)
(-3.94126e-18 3.69493e-18 -4.95544e-20 1.97063e-18 -6.96648e-21 1.97063e-18)
(5.35059e-18 -7.6718e-18 3.56158e-20 -3.1474e-18 5.00695e-21 -2.20318e-18)
(1.20336e-18 1.48915e-17 -4.53903e-20 1.20336e-18 -6.38108e-21 -2.40671e-18)
(-1.72105e-18 -5.9161e-19 1.08196e-20 8.60524e-19 1.52104e-21 8.60524e-19)
(5.45671e-19 -6.13879e-18 1.02913e-20 -2.72835e-19 1.44677e-21 -2.72835e-19)
(2.07104e-18 2.427e-19 0 -1.03552e-18 0 -1.03552e-18)
(1.26218e-34 5.4675e-18 0 7.35126e-19 0 -7.35126e-19)
(1.61955e-18 -5.42261e-18 0 -8.09777e-19 0 -8.09777e-19)
(1.08944e-18 2.75765e-19 -1.541e-20 -5.4472e-19 -2.16638e-21 -5.4472e-19)
(9.88389e-19 -5.46833e-18 1.6803e-20 -4.94194e-19 2.36221e-21 -4.94194e-19)
(-8.94698e-19 5.05365e-18 -2.10924e-21 4.47349e-19 -2.96522e-22 4.47349e-19)
(1.79436e-18 -5.42514e-18 0 -1.57007e-18 0 -2.24295e-19)
(1.12446e-18 5.2709e-18 0 -5.62229e-19 0 -5.62229e-19)
(4.50783e-18 -2.11304e-20 4.25085e-21 -2.93009e-18 5.97595e-22 -1.57774e-18)
(-4.96782e-18 -1.27018e-19 -8.51749e-21 3.16134e-18 -1.19741e-21 1.80648e-18)
(2.26159e-18 -8.48097e-20 8.53067e-21 -1.1308e-18 1.19926e-21 -1.1308e-18)
(3.17034e-18 5.34995e-18 -8.54174e-21 -1.58517e-18 -1.20082e-21 -1.58517e-18)
(-9.06836e-19 0 8.5514e-21 -2.26709e-19 1.20218e-21 1.13355e-18)
(9.07795e-19 2.59573e-18 -4.28022e-21 -1.13474e-18 -6.01724e-22 2.26949e-19)
(-1.36322e-18 -5.62328e-18 1.28551e-20 1.36322e-18 1.8072e-21 0)
(1.82024e-18 2.73036e-18 8.58237e-21 -9.1012e-19 1.20653e-21 -9.1012e-19)
(1.36066e-18 -2.33864e-18 0 -1.36066e-18 0 0)
(-3.62962e-18 5.35936e-18 8.55676e-21 2.49536e-18 1.20293e-21 1.13426e-18)
(0 1.70533e-19 -1.07207e-20 0 -1.50715e-21 0)
(-4.11358e-18 2.65669e-18 1.93954e-20 2.74238e-18 2.72665e-21 1.37119e-18)
(4.52508e-19 -5.68463e-18 1.70685e-20 -9.05015e-19 2.39953e-21 4.52508e-19)
(4.55188e-19 0 -1.0731e-21 -9.10375e-19 -1.50859e-22 4.55188e-19)
(4.55267e-19 2.90233e-18 1.07329e-21 4.55267e-19 1.50885e-22 -9.10535e-19)
(7.79991e-18 3.44114e-19 -1.73065e-20 -4.58818e-18 -2.43299e-21 -3.21173e-18)
(0 -2.98804e-18 0 0 0 0)
(4.07475e-18 -2.76031e-18 -3.96641e-20 -1.84021e-18 -5.57608e-21 -2.23454e-18)
(-4.45877e-18 -2.09005e-18 0 2.22939e-18 0 2.22939e-18)
(0 6.46441e-18 -4.33486e-20 0 -6.09406e-21 0)
(2.33924e-18 4.38607e-19 6.61766e-20 -1.16962e-18 9.30327e-21 -1.16962e-18)
(-2.06078e-18 -3.75355e-18 -4.44182e-20 5.88793e-19 -6.24442e-21 1.47198e-18)
(-2.64391e-18 -4.40652e-19 -2.21617e-20 1.76261e-18 -3.11555e-21 8.81305e-19)
(-2.61887e-18 -3.27359e-18 2.19518e-20 1.74591e-18 3.08604e-21 8.72957e-19)
(-2.86449e-19 -3.43739e-18 -6.48286e-20 5.72898e-19 -9.11377e-21 -2.86449e-19)
(-1.40594e-18 -3.16336e-18 -4.24252e-20 -5.62374e-19 -5.96425e-21 1.96831e-18)
(1.3771e-18 -2.06566e-19 -2.07776e-20 -1.10168e-18 -2.92097e-21 -2.75421e-19)
(3.20481e-18 -2.003e-19 0 -1.6024e-18 0 -1.6024e-18)
(-2.58005e-19 5.99862e-18 0 5.1601e-19 0 -2.58005e-19)
(1.73895e-18 -2.79475e-19 -3.74816e-20 -4.96844e-19 -5.26926e-21 -1.24211e-18)
(-7.15361e-19 1.7884e-19 4.4972e-20 0 6.32228e-21 7.15361e-19)
(-4.56421e-19 -1.71158e-19 8.60803e-21 2.2821e-19 1.21014e-21 2.2821e-19)
(8.71152e-19 -2.28677e-18 -2.46447e-20 -4.35576e-19 -3.46462e-21 -4.35576e-19)
(4.14515e-19 -3.88608e-20 5.47239e-20 -2.07258e-19 7.69322e-21 -2.07258e-19)
(-2.75369e-18 -4.90501e-18 -7.41918e-21 1.37685e-18 -1.04301e-21 1.37685e-18)
(1.86146e-18 4.53732e-18 -1.05321e-20 -9.30732e-19 -1.48063e-21 -9.30732e-19)
(2.28369e-18 9.05789e-20 9.93924e-21 -1.14184e-18 1.39728e-21 -1.14184e-18)
(1.30311e-18 -1.76931e-19 -1.35594e-20 -1.19077e-18 -1.90622e-21 -1.12337e-19)
(-3.16206e-18 -1.86336e-19 1.36311e-20 2.66517e-18 1.9163e-21 4.96896e-19)
(1.45101e-18 1.87044e-19 -1.71036e-21 -7.25504e-19 -2.40447e-22 -7.25504e-19)
(1.63828e-18 -4.60767e-18 -3.43309e-21 -8.19142e-19 -4.82633e-22 -8.19142e-19)
(1.2782e-18 1.19831e-19 1.7219e-20 -6.39098e-19 2.42069e-21 -6.39098e-19)
(-4.02803e-18 -4.56587e-18 0 2.01402e-18 0 2.01402e-18)
(-2.20224e-18 -4.81741e-18 0 1.65168e-18 0 5.50561e-19)
(2.57453e-18 2.41362e-19 0 -7.3558e-19 0 -1.83895e-18)
(-7.36924e-19 -6.90866e-20 -6.94914e-21 3.68462e-19 -9.76928e-22 3.68462e-19)
(0 3.46023e-19 -6.96101e-21 0 -9.78597e-22 0)
(1.84865e-18 1.03987e-19 -6.97306e-21 -9.24325e-19 -9.8029e-22 -9.24325e-19)