/*--------------------------------*- C++ -*----------------------------------*\
| =========                 |                                                 |
| \\      /  F ield         | OpenFOAM: The Open Source CFD Toolbox           |
|  \\    /   O peration     | Version:  2312                                  |
|   \\  /    A nd           | Website:  www.openfoam.com                      |
|    \\/     M anipulation  |                                                 |
\*---------------------------------------------------------------------------*/
FoamFile
{
    version     2.0;
    format      ascii;
    arch        "LSB;label=32;scalar=64";
    class       volScalarField;
    location    "50";
    object      div(phi);
}
// * * * * * * * * * * * * * * * * * * * * * * * * * * * * * * * * * * * * * //

dimensions      [0 0 -1 0 0 0 0];

internalField   nonuniform List<scalar> 
11040
(
-0.0336385
-0.0649639
-0.0169391
-0.0174835
-0.0183316
-0.049618
-0.0608906
-0.0762714
-0.0919961
-0.0504192
-0.0699355
-0.0294878
-0.0154078
0.0348177
-0.0913448
4.93584e-05
-0.0487919
-0.135489
0.102762
-0.133184
-0.0325322
0.273187
-0.211687
0.597398
0.366139
0.0585203
0.355976
0.0408085
0.300717
-0.0772
0.0802832
0.614338
1.90063
-2.05919
-4.16011
4.63765
0.604308
0.686539
4.83684
-1.84842
5.02097
-0.0730485
-0.0382402
0.00836256
0.04149
0.0566409
0.0570459
0.0570387
0.0521949
0.0474867
0.0408743
0.0339087
0.0255376
0.0204837
-0.00544242
-0.0375264
-0.0314087
-0.0348742
0.0041647
0.0383226
0.00699923
-0.0617345
-0.00832261
0.00278692
0.0607997
-0.0242583
0.132181
0.116676
-0.0562174
0.0390815
-0.0580475
0.18272
0.435643
0.647809
-0.0991543
-0.192303
1.04713
0.659784
0.895525
1.42691
2.27605
4.68854
0.00961493
-0.0182363
-0.00168363
0.0078367
0.00564949
-0.000680353
-0.00509648
-0.0138613
-0.0211897
-0.0268026
-0.0320964
-0.0217678
-0.0101342
0.0198657
-0.0289709
-0.00164482
-0.0166929
-0.081938
0.0782025
0.00300431
0.0655593
0.214656
-0.169919
0.143693
0.053778
-0.00636507
0.183688
0.0340097
0.169887
-0.0818209
-0.198275
0.17759
0.576895
-0.903881
-1.78819
1.62546
0.225565
-0.0581902
1.17431
-0.839026
0.170752
-0.039611
-0.020629
-0.00699992
-0.00571209
0.0051156
0.00578556
0.00940869
0.0130611
0.0152067
0.0184637
0.0198558
0.0257144
0.0315456
0.0286184
0.022664
0.0263836
0.0114619
0.0128273
0.0326044
0.0208354
0.0311417
0.0365438
-0.0259033
-0.200197
-0.0845158
-0.0315626
0.0152833
0.0308329
0.0868925
0.0177075
0.0489365
0.169496
0.195748
-0.156015
-0.0819449
0.445485
0.196878
0.335931
0.607325
0.555304
1.2676
-0.0074538
-0.0104546
-0.00772333
0.00472828
-0.00110747
0.00141988
0.000867642
0.000175116
-0.000562595
-0.00250223
-0.00211325
-0.000660861
0.0047791
0.0113942
-0.00404735
-0.00187346
-0.00787624
-0.0374705
0.040606
0.0217301
0.0592409
0.115891
-0.0856208
0.0483243
-0.00648245
0.00493474
0.0747676
0.0117337
0.0622945
-0.044186
-0.109283
0.10886
0.192831
-0.405946
-0.67774
0.504786
0.18353
0.0552047
0.5392
-0.262928
-0.122898
-0.00258323
-0.0143604
0.00530456
-0.0161231
-0.00289948
-0.00788911
-0.00917928
-0.00761859
-0.00629263
-0.00107371
-4.57807e-05
0.00836682
0.0126866
0.0129407
0.0122075
0.0132447
0.00329299
0.00739755
0.0138068
0.0099806
0.0254536
0.0192863
-0.0197554
-0.0432493
-0.0286563
-0.0211957
-0.00514578
0.00854475
0.0329221
0.00732413
0.0360972
0.103975
0.0357766
-0.14457
-0.0387517
0.168876
0.10804
0.181043
0.172151
0.0158548
0.158796
-0.013328
0.00187025
-0.0217922
-0.000571479
-0.005775
-0.00330403
-0.00399739
-0.00473403
-0.000561694
-0.00152435
0.00374606
0.00331704
0.00583158
0.00657646
0.00352018
-6.97436e-05
-0.00411327
-0.0112091
0.0106368
0.0144486
0.031623
0.0445093
-0.0256814
-0.00771074
-0.00812443
0.00595231
0.0219163
0.00501761
0.0143413
-0.0155186
-0.0191794
0.0559104
0.04358
-0.13296
-0.170802
0.0978125
0.0949484
0.0867138
0.128801
-0.0610029
-0.0774444
0.00200338
-0.0142471
-0.00857906
0.000664314
-0.00107575
0.00565488
-0.00423938
9.38197e-05
-0.00662195
0.00141334
-0.00537432
0.00105887
0.00218824
0.00173523
0.000521974
9.1275e-05
-0.00389522
0.00205143
0.00775589
0.0105068
0.0206358
0.00857304
0.000149092
0.000794117
0.00590721
0.00655434
0.00862455
0.00676442
0.00573174
-0.00379252
0.0246211
0.0501133
-0.0114741
-0.0843424
-0.0187326
0.0410502
0.0488608
0.0670057
0.00152974
-0.0741003
-0.0695335
0.00132843
-0.0200517
0.00553096
-0.00757176
0.0128712
-0.00386556
0.00382832
-0.00924927
0.0021194
-0.0084607
6.35187e-05
0.000895482
0.00310318
0.00237516
0.00232175
-0.000485797
-0.00103277
-0.0011359
0.00275384
0.00828186
0.0136322
0.0143935
0.000225298
0.00279324
0.00276798
0.0100455
0.0092896
0.0091223
0.00558991
0.00614955
0.0182412
0.0280087
0.00406105
-0.0353022
-0.025205
0.0198317
0.0404593
0.0334792
0.00710708
-0.0357879
-0.0492281
-0.0210817
0.00110716
-0.0110421
0.00835574
-0.00254672
0.00428918
-0.00635684
0.000775577
-0.00602421
-0.00115924
0.000789033
0.00307342
0.00282128
0.00335959
-0.00160156
-0.000725464
-0.00432445
-0.000499487
0.00331022
0.00853819
0.0112956
0.00706482
0.00321207
0.00487708
0.00968221
0.00345939
0.00451889
-0.000230668
-0.00342373
-0.00218513
0.0101091
0.0111206
-0.0220296
-0.0361217
-0.0237719
0.0142514
0.0131252
0.0239212
-0.0130031
-0.032657
-0.0447328
-0.00297016
-0.0069624
-0.00268405
-0.00147952
-0.000286632
-0.00197431
-0.00167284
-0.00222242
-0.00156843
0.000132472
0.0026098
0.00160858
0.00460878
-0.00269414
0.00057528
-0.00432717
-0.00154193
0.000444368
0.00413476
0.00599496
0.00947502
0.00597453
0.00751763
0.0080783
0.00154221
0.00359082
-0.00258312
-0.00436818
-0.00843995
-0.00529446
-0.00359303
-0.012646
-0.0196253
-0.0410967
-0.0075067
-0.0181815
0.0153976
-0.011248
-0.00457075
-0.0335816
-0.0201425
-0.00569488
-0.00561597
-0.00342491
-0.00241998
-0.00190733
-0.00147847
-0.00156927
-0.000554819
-0.00109857
0.00160353
6.49277e-05
0.00397202
-0.0018476
0.000799321
-0.00245421
-0.00156701
-0.000118521
0.00173856
0.00312293
0.00721252
0.00460623
0.00741131
0.00448042
-0.000917168
0.00950673
-0.00509254
-0.00210576
-0.00669816
-0.00495381
-0.00750019
-0.0051197
-0.00645859
-0.0248703
-0.0108148
-0.0240674
0.00509792
-0.0103154
0.0064919
-0.0189461
-0.00440606
-0.0259629
-0.00290911
-0.00432516
-0.00247946
-0.00279464
-0.00154353
-0.00170378
-0.0011414
-0.000922301
-0.000609154
-0.000111235
0.000889503
6.04671e-05
0.000165557
-0.000243327
-0.000651062
0.000193067
0.0012119
0.000892673
0.00447438
0.000481741
0.00517166
3.06037e-06
-0.000430896
0.00730724
-0.00495453
0.00869126
0.000254558
0.00138834
-0.000378138
0.001643
0.00195488
-0.00114323
-0.00103604
-0.0047623
0.00141247
0.00136731
0.00337157
-0.00111692
0.000406627
-0.00758114
-0.0015291
-0.00158917
-0.00389307
-0.00121422
-0.00266294
-0.00050962
-0.00188906
-0.000323098
-0.00113478
-0.000169013
-0.000372501
0.000269831
0.000467455
0.00029145
0.000775199
0.000104192
0.00139878
-0.000578843
0.0023698
-0.00188613
0.00267232
-0.00156776
0.000746352
0.00636672
-0.00192483
0.0123175
0.00224406
0.00444976
0.00856895
0.00309609
0.00974282
0.00623926
0.00996399
0.0083045
0.00848245
0.00951166
0.00824734
0.0085404
0.00659779
0.00671692
0.00237242
0.00206557
-0.000415066
-0.00293286
-0.000544149
-0.00220187
0.000262737
-0.00168975
0.000573356
-0.00115868
0.000725079
-0.000556719
0.000782337
7.13017e-05
0.00068276
0.000438974
0.000497677
-0.000202351
0.000496792
-0.00109814
0.000653216
-7.29676e-05
0.0012097
0.0050735
-0.00122552
0.0150137
0.0014491
0.0175159
0.00861813
-0.000336309
0.0118162
-0.000445312
0.0131976
0.00103921
0.0159106
0.000584098
0.0188732
-0.000763644
0.0187982
-0.0017127
0.0152143
-0.00281761
0.00827402
-0.000185132
-0.00243272
-1.58557e-05
-0.00174167
0.000682644
-0.00136706
0.0010526
-0.0010242
0.00126275
-0.000724718
0.00127091
-0.000545413
0.0010253
-0.000640525
0.000246262
-0.000504092
-0.000208659
-0.000293401
0.00127777
0.000824146
0.00280708
-0.000345555
0.0127458
0.000929657
0.0139686
0.000146704
0.0120165
0.00562538
-0.000521009
0.00465958
-0.00129454
0.00495935
-0.0013438
0.00649662
-0.0014994
0.00701777
-0.00152386
0.00526575
-0.00342049
0.00236618
-0.00320645
0.000254729
-0.0017559
-6.13837e-05
-0.00139452
0.000482166
-0.00119068
0.000810101
-0.00103614
0.00106335
-0.00100353
0.00119638
-0.00116692
0.000983585
-0.00146411
0.000537622
-0.00152991
0.000204411
0.00069567
0.000917832
0.00224521
0.00193493
0.00647008
-0.00137726
0.0125642
-0.00160407
0.0116884
0.000608046
0.00226534
-0.0018026
-0.000660334
-0.00454886
-0.00238542
-0.00634087
-0.00246148
-0.00765845
-0.00120107
-0.00871066
-0.000737266
-0.00961443
-0.00163874
-0.00955463
-0.000240049
-0.00125793
-2.56647e-05
-0.00104708
0.000230093
-0.000997691
0.000388464
-0.000931964
0.000519014
-0.000872602
0.000562813
-0.000926019
0.000444792
-0.000969945
-1.91164e-05
-0.00027613
9.22205e-05
6.53193e-05
0.000531067
-0.000131003
-0.000356773
-0.00408465
0.0104932
-0.00486521
0.0139971
-0.00401518
0.0141389
-7.1221e-06
-0.000300988
-0.00241182
-0.0013941
-0.00401002
-0.00297144
-0.00291056
-0.00477001
0.000230892
-0.00614355
0.00275274
-0.00652915
0.00292339
-0.00561342
-0.000315992
-0.000813043
-8.20379e-05
-0.000702467
9.48974e-05
-0.000716736
0.000166441
-0.000706901
0.000180118
-0.000688593
9.9784e-05
-0.000585714
-0.000171608
-0.000287276
-0.000113152
-0.000619161
2.64563e-06
-0.00176619
-1.46433e-05
-0.00267478
-0.000912089
0.00448434
-0.0102419
0.0109178
-0.00723277
0.00656807
-0.00521483
0.00705117
0.00169244
0.00205472
0.0024453
0.00320794
0.00361161
0.00382772
0.00555533
0.00439655
0.00729649
0.00509113
0.00693554
0.00594666
0.0049435
-0.000612497
-0.000459922
-0.000365812
-0.000273495
-8.41281e-05
-0.000275522
3.98587e-05
-0.00029917
7.10867e-05
-0.000297568
-2.08261e-05
-0.000377826
-0.000168285
-0.000591125
-0.000504412
-0.00064218
-0.000821842
-0.000519525
-0.000551383
-0.000338996
8.35731e-05
-0.00630468
0.00224634
-0.0152664
-0.00353749
-0.0113588
0.000552014
-0.0121742
0.000110926
-0.000590432
0.00148705
0.000519915
0.00240852
0.00124574
0.0031016
0.00186393
0.00331373
0.00269856
0.00242348
0.00369751
0.000660574
-0.000895946
-0.00100091
-7.85076e-05
-0.000619597
8.61019e-05
-0.000419183
1.74065e-05
-0.000302132
-9.64896e-05
-0.000278328
-0.000332086
-0.000352489
-0.000657687
-0.000388795
-0.00114882
-9.86613e-05
-0.00180873
0.00102415
-0.00223853
0.00168066
-0.00171974
0.00173405
-0.00597155
-0.00204439
-0.00858943
-0.00624357
-0.00544515
-0.0024361
-0.00716471
-0.000790835
-0.00120509
-0.000257114
-0.000871358
-0.000319417
-0.000771547
-0.000699802
-0.000246068
-0.00149486
-0.000257081
-0.00187179
6.81747e-06
-0.000121368
-0.000620526
-0.000470737
-0.000266
-0.000297891
-0.000180287
-0.000256474
-0.000203984
-0.000266837
-0.000291908
-0.000314446
-0.000418583
-0.000377517
-0.000637766
-0.000306126
-0.000834832
4.49265e-05
-0.000814645
0.000314355
-0.000813126
-8.77536e-05
-0.00223176
-0.000756294
-0.00395959
-0.002514
-0.00335096
-0.00221233
-0.00160815
-0.00324181
-0.000246849
-0.000970983
-2.28341e-05
-0.000958613
-0.000490095
-0.000678115
-0.00144649
-0.000797588
-0.00225985
-0.000569427
-0.00259078
-8.37561e-05
-0.00177662
-0.000553478
-0.000540419
-0.000303331
-0.000303331
-0.000179425
-0.000296049
-0.000182004
-0.000293857
-0.000244578
-0.000330031
-0.000354275
-0.000264442
-0.000492085
-0.000182497
-0.000601838
8.94719e-06
-0.000588752
8.64408e-05
-0.00044716
-0.00112762
-0.000388034
-0.00252172
-0.000695886
-0.00299622
-0.00106029
-0.00375375
0.000809631
-0.00610823
-4.99686e-05
-0.00237254
-0.000617892
-0.00203871
-0.000994989
-0.0018758
-0.00111464
-0.00161982
-0.00120403
-0.00152743
-0.00152255
-0.00176835
0.000502936
-0.000722074
-0.000423538
-0.000329022
-0.000168462
-0.000318015
-2.83566e-05
-0.000432417
8.81705e-05
-0.000634544
0.000210077
-0.000836756
0.000344691
-0.00107861
0.000492333
-0.0013649
0.000691261
-0.00157157
0.000911096
-0.00159079
0.000594779
-0.00174173
-0.000699353
-0.00225463
-0.000956755
-0.00267011
-0.00161062
-0.00336542
-8.91514e-05
-0.0049767
-0.000847045
-0.00185401
-0.00100471
-0.00162813
-0.000832433
-0.00161309
-0.000581195
-0.00161433
-0.000387709
-0.0017958
-0.000368123
-0.00179653
-0.000243662
-0.000421091
-0.000206664
-0.000209317
-0.0001115
-0.000194395
-8.20893e-05
-0.000249929
-6.31865e-05
-0.000342513
-4.00556e-05
-0.000453762
-2.63332e-05
-0.000637131
1.17966e-05
-0.000766247
9.23409e-05
-0.00081841
-7.81601e-06
-0.000740982
-0.00111853
-0.00148198
-0.00102144
-0.00143453
-0.00311646
-0.00186199
-0.00564338
-0.000360577
-0.00839322
6.58339e-05
-0.00288895
0.000376824
-0.00269937
0.000699601
-0.00261233
0.000781215
-0.00269202
0.000581027
-0.00265138
6.51376e-05
0.000829113
-0.000652412
-0.000147494
-0.000312912
-6.36046e-05
-0.000199976
-3.60421e-05
-0.000173912
-7.64007e-05
-0.000158353
-0.000150453
-0.000131957
-0.0002514
-0.00011742
-0.000365851
-6.5299e-05
-0.000466506
3.7068e-06
-0.000538452
0.000112479
-0.000590542
-0.00035071
-0.000219396
-0.000505365
-0.00270323
-0.000869145
-0.00680853
-0.00258625
-0.0058887
0.00110026
-0.00773424
0.000299678
-0.00196571
0.000540921
-0.00185746
0.000562542
-0.00191649
0.000495595
-0.00221478
0.000341121
-0.00275314
-0.00120782
4.6238e-05
-0.000469405
-5.86957e-05
-0.00027302
7.57031e-05
-0.000323269
0.000161329
-0.00041971
0.000228712
-0.000549069
0.000295928
-0.000663944
0.000357582
-0.000766224
0.000413635
-0.000855056
0.000434664
-0.000960891
0.000434433
-0.000962359
0.000175139
-0.000832075
-0.00241803
-0.000456366
-0.0053061
-0.00130006
-0.00314539
-0.0013714
-0.000435247
-0.00287151
0.000920337
-0.00129201
0.00110623
-0.00137622
0.00107562
-0.00156353
0.000950425
-0.00194245
0.000957879
-0.00257701
0.000650569
-0.000529784
-3.46876e-05
-0.0002187
-5.92715e-05
-0.000148187
-4.22091e-05
-0.000181401
-4.68105e-05
-0.000234676
-5.19298e-05
-0.000316021
-5.20738e-05
-0.000389995
-5.8302e-05
-0.00049177
-8.65893e-05
-0.000575555
-0.000177197
-0.000689578
-0.000349375
-0.000692369
-0.0016793
-0.000102856
-0.00370224
0.000724035
-0.00394716
0.000313686
-0.00421287
0.00313112
-0.00579805
0.00161685
-0.00193278
0.00152706
-0.0020047
0.00154362
-0.00215015
0.00151275
-0.00238521
0.00130251
-0.00264684
-0.000751731
0.000137142
-0.000393296
-3.63305e-05
-0.000223019
-2.40272e-05
-0.000202216
-4.89939e-05
-0.000188434
-0.000108616
-0.000197499
-0.000184991
-0.000196087
-0.00026861
-0.000212272
-0.000360462
-0.000246511
-0.000465887
-0.000275526
-0.000604432
-0.000253578
-0.000651637
0.000161892
-0.00146273
0.00101651
-0.00209195
0.00128625
-0.00199495
0.000874739
-0.0029034
0.00322859
-0.00378296
0.00142231
-0.00132439
0.00132304
-0.00142112
0.001337
-0.00169236
0.00119711
-0.00197544
0.00124339
0.000482983
-0.000454496
5.43398e-05
-0.000325635
-2.13871e-06
-0.000282406
5.1094e-05
-0.00034757
8.47919e-05
-0.000436176
0.00010409
-0.000526263
0.000109363
-0.000584099
9.58575e-05
-0.000623315
4.03164e-05
-0.00059736
-9.55523e-05
-0.000528109
-0.000229084
-0.000542095
-0.000726997
-2.49729e-05
-0.000912388
0.000957648
-0.00038522
0.00128827
0.000923194
0.000228181
0.00188352
-0.000347639
0.00157553
-0.00105527
0.00143192
-0.00134352
0.00137897
-0.00158629
0.00116856
-0.00192805
0.00110825
-0.000517267
0.000131243
-0.000341928
-3.58232e-05
-0.000180814
-8.36396e-05
-0.000193771
-0.000105587
-0.000231985
-0.000131643
-0.00029839
-0.000154949
-0.000342819
-0.000172693
-0.00039617
-0.000195207
-0.000402944
-0.000244794
-0.000363556
-0.000308689
-0.000372745
-0.000407855
-0.000412021
-0.000253888
0.000142501
0.000246981
0.000962663
0.000684353
0.00168514
-0.000277246
0.00303083
-0.000470594
0.00196334
-0.000933798
0.00169928
-0.00126714
0.0016344
-0.00143431
0.00144779
-0.00161998
0.00120351
0.000346608
-0.000314416
6.26965e-05
-0.000267298
-3.89167e-05
-0.000220696
-6.7426e-05
-0.000230747
-0.000112344
-0.000247653
-0.000173313
-0.000248186
-0.000232028
-0.000238533
-0.000283178
-0.000225788
-0.000312771
-0.000190978
-0.000316784
-0.000165182
-0.000304804
-0.000504619
-0.000108883
-0.000770039
0.000395316
-0.000393784
0.000913427
3.18242e-05
0.00104051
0.00102692
5.86747e-05
0.00202627
-0.000222823
0.00118557
-0.000943653
0.00106134
-0.00109279
0.00106007
-0.00124164
0.000880004
-0.00123197
-0.000345583
0.000117022
-0.000319741
2.7992e-05
-0.000254442
4.22024e-06
-0.00026482
3.15228e-05
-0.000343426
5.99994e-05
-0.000429512
9.24037e-05
-0.000506337
0.000116849
-0.000575368
0.000135554
-0.000609788
0.00012241
-0.000635728
6.54541e-05
-0.00065919
-3.4772e-05
-0.000886234
2.39304e-05
-0.00103407
0.000219164
-0.00107706
0.000303621
-0.000951706
0.00023736
-0.00112323
0.00112376
-0.0016351
0.000466471
-0.000888502
0.000476351
-0.00109219
0.000548495
-0.00107584
0.000515364
-0.00116844
0.00025335
-0.00023309
6.93899e-05
-0.000238848
-1.97928e-05
-8.92652e-05
-5.53452e-05
-0.000121753
-7.2163e-05
-0.000168658
-7.69566e-05
-0.000222463
-8.51053e-05
-0.000282067
-7.80388e-05
-0.000343862
-8.48458e-05
-0.000379479
-0.000118726
-0.000417433
-0.000227925
-0.000731841
-0.0004501
-0.0012212
-0.000485393
-0.00159725
-0.000466288
-0.00186279
-0.000512393
-0.00110821
-0.000453402
-0.00036674
-0.00120171
7.36696e-05
-0.000753608
0.000271982
-0.000907115
0.00044316
-0.000800299
0.000443176
-0.000840493
-0.000226821
0.000111707
-0.000240519
4.67827e-05
-6.28992e-05
-6.00913e-05
-2.05502e-05
-8.61719e-05
-3.7228e-05
-0.000124632
-5.09216e-05
-0.000178142
-4.53622e-05
-0.000247596
-5.95458e-05
-0.000316211
-3.19818e-05
-0.000374146
3.27796e-05
-0.000317655
-0.000211996
-0.000701663
-0.000772265
-0.00125177
-0.00124826
-0.00141947
-0.00183103
-0.00143876
-0.0020606
-0.00124558
-0.00144272
-0.000276714
-0.00221361
-0.000256729
-0.0007699
-8.55487e-05
-0.000766534
9.13238e-05
-0.000824008
8.54151e-05
-0.000655999
0.000199907
-0.000169886
9.78995e-05
-0.000141854
-5.53288e-05
3.27616e-05
-8.21323e-05
9.51808e-06
-8.66156e-05
-3.16372e-05
-7.98147e-05
-8.48337e-05
-8.71728e-05
-0.000171753
-5.71719e-05
-0.000262618
-4.75431e-07
-0.000249311
1.95414e-05
-0.000216668
-0.000485553
-0.000367128
-0.00139674
-0.000698873
-0.00193516
-0.00125572
-0.00220006
-0.00188442
-0.00163967
-0.00167625
-0.00107838
-0.00105797
-0.000322449
-0.00165123
-0.000238421
-0.000610901
-0.00014365
-0.000591298
-9.95915e-05
-0.00066239
-5.15828e-05
-0.000152635
0.000108826
-0.000169025
8.06971e-06
1.35827e-05
-0.000119128
6.76471e-05
-0.000116821
8.81684e-05
-0.000172932
0.000113705
-0.000261882
0.000149176
-0.00035225
0.000173309
-0.000473275
0.000236495
-0.000567578
0.000295792
-0.000557374
0.000273636
-0.000933703
0.000245974
-0.00193165
-0.000280889
-0.00241095
-0.00101429
-0.0015552
-0.00058481
-0.001836
-0.000837662
-0.00231677
-0.000107756
-0.00321617
-0.000351312
-0.00075901
-0.000215705
-0.000647412
-0.000112264
-0.000688784
3.83329e-06
0.000160867
-0.00011729
8.89091e-05
-9.93051e-05
-7.38543e-05
3.64592e-05
-1.71995e-05
1.48093e-05
-3.10277e-05
9.11876e-06
-7.11687e-05
1.04091e-05
-0.00012606
-1.98536e-05
-0.000220009
-5.10815e-06
-0.000327417
5.13594e-05
-0.000324579
0.000111835
-0.000344179
0.000520182
-0.00129729
0.000654081
-0.00232952
-4.34687e-05
-0.00131631
0.000290521
-0.00219342
-0.000602186
-0.00298476
-0.000595073
-0.00204326
-0.00146447
-0.000266855
-0.000352614
-5.86778e-05
-0.000378482
-8.6411e-05
-0.000534834
-7.26969e-05
-9.9684e-05
0.000104178
-0.000125303
1.69699e-05
2.35951e-06
-2.36452e-05
-9.60214e-06
1.65772e-05
-1.94695e-05
1.5253e-05
-4.66448e-05
-4.13489e-07
-0.000107555
2.369e-05
-0.000177119
4.73307e-06
-0.000206724
5.49144e-05
-0.000259502
7.38916e-05
-0.000154847
-0.000873212
0.000383007
-0.00216998
0.00052122
-0.000855783
0.0008642
-0.00175687
0.000948489
-0.00422214
-0.00109373
-0.00371125
0.000387401
-0.00515052
-0.000706451
-0.00124799
-0.000643114
-0.00109709
-0.000551395
-0.00110369
-0.000393878
0.000133581
-7.81813e-05
8.72173e-05
-7.14004e-05
-3.05578e-05
-2.11871e-05
2.38647e-05
-2.49095e-05
1.41405e-05
-1.61808e-05
-1.75433e-05
-5.77192e-06
-5.10133e-05
-2.81034e-05
-0.000125131
3.95315e-06
-0.000176503
5.13311e-05
-0.00014407
0.000112578
-0.000209064
0.000602308
-0.00113626
0.000970793
-0.000624418
0.00109339
-0.00128499
0.00146201
-0.00381363
0.00063123
-0.00209402
0.000914798
-0.00167842
0.00042163
-2.35486e-05
-0.000185862
2.77717e-05
-0.000297657
-0.000142367
-0.000485759
-0.000260075
-5.82963e-05
9.78329e-05
-8.5046e-05
4.14731e-05
-3.28086e-05
1.61784e-05
-6.74029e-05
3.72035e-05
-4.32781e-05
4.62974e-05
-6.07507e-05
4.64283e-05
-0.000113381
6.90353e-05
-0.000139801
8.85437e-05
-0.000138986
0.000130206
-0.000132391
5.12995e-05
-8.03967e-05
-0.00105799
0.000191531
-0.000974706
0.000756478
-0.00112432
0.00113565
-0.00300465
0.00173268
-0.0025573
0.000680941
-0.00262479
0.00131569
-0.00315445
-0.000255669
-0.000503189
-0.000311924
-0.000291065
-0.000201554
-0.000168518
-0.000112901
0.000113079
-4.71788e-05
9.65094e-05
-5.30539e-05
6.94856e-06
-4.3964e-05
2.69043e-05
-6.61464e-06
1.546e-05
-2.37987e-06
1.26093e-05
-2.52601e-05
1.89185e-05
-5.07387e-05
2.08544e-05
-3.78334e-05
4.5614e-05
-6.19641e-05
3.03411e-05
4.76878e-06
-0.000566239
0.000275035
-0.000561813
0.000645231
-0.000925951
0.000854015
-0.00244756
0.00141025
-0.00241338
0.00205039
-0.00174468
0.000729943
-0.00161479
0.00138258
-0.00114018
0.000286364
0.000562267
0.000214404
0.000757876
0.000245865
0.000825028
-2.62141e-05
9.60544e-05
-5.41374e-05
6.13982e-05
-1.77481e-05
2.31946e-05
-1.7605e-05
1.23414e-05
1.8061e-05
1.15605e-05
2.51266e-05
8.31866e-06
1.52597e-05
-1.15455e-05
3.04398e-05
-1.66883e-05
4.48621e-05
9.61995e-06
0.000103413
-7.13519e-05
0.000456901
0.000101513
0.00086275
-0.000558355
0.000873246
-0.0020098
0.000992489
-0.00240953
0.00160928
-0.00276766
0.0013068
-0.00140034
0.00187376
-0.00184262
0.00232698
-9.62597e-05
0.000692387
-4.2748e-05
0.000589392
-8.32398e-05
0.000537934
8.34651e-05
-2.39635e-05
7.48091e-05
-3.19769e-05
2.63954e-05
-1.73444e-05
2.79707e-05
6.74772e-06
2.29719e-05
2.1779e-05
2.90711e-05
2.16062e-05
3.83254e-05
2.87258e-05
2.99806e-05
3.54198e-05
3.61675e-05
2.65372e-05
2.34895e-05
7.86872e-05
-6.32944e-06
0.000121017
-0.000403878
0.000556524
-0.000911467
0.00142153
-0.000827855
0.00238093
-0.00086804
0.0032316
-0.000161985
0.00179497
-0.000520802
0.00108579
-0.000178621
-0.00036541
0.000182034
-0.000437518
0.000363766
-0.00026515
0.000620053
1.71431e-05
5.88676e-05
-2.35435e-06
6.05654e-05
-6.08781e-06
4.31193e-05
-6.22285e-06
2.30949e-05
1.95305e-05
2.79032e-05
3.47961e-05
3.70761e-05
3.97049e-05
4.5172e-05
5.08237e-05
7.25503e-05
5.04736e-05
9.98303e-05
4.32611e-05
5.79338e-05
4.90142e-05
1.44418e-05
0.000420737
-0.000377465
0.00100046
-0.000977105
0.00120192
-0.00161427
0.00159897
-0.00238013
0.00100941
-0.00162543
0.00146181
-0.00247135
0.00141984
-0.000674043
0.000419315
-0.000447665
0.000404389
-0.000358361
0.000430975
6.74098e-05
4.84987e-05
8.00745e-05
1.41291e-05
6.48822e-05
4.96793e-06
5.2217e-05
6.97764e-06
3.90727e-05
2.009e-05
4.12304e-05
3.08024e-05
4.87272e-05
4.86505e-05
5.64738e-05
8.15046e-05
5.58803e-05
0.000129922
2.57862e-05
0.000196392
4.91042e-05
0.000183297
7.55896e-05
0.000809286
0.000135461
0.0018735
0.000251788
0.00257279
0.000383076
0.00242049
0.00226544
0.00206526
0.00312229
0.000683613
0.00507563
0.000257289
0.0010355
-5.40838e-05
0.00086441
-9.73487e-05
0.000887048
5.6479e-05
6.74206e-05
4.61988e-05
6.11188e-05
3.44269e-05
6.25198e-05
1.63941e-05
4.1772e-05
1.35107e-05
3.86044e-05
1.65338e-05
4.18964e-05
2.17194e-05
5.65973e-05
3.16137e-05
7.51187e-05
5.2788e-05
0.000104125
9.18614e-05
0.000144969
9.30075e-05
0.000173505
0.000257066
-0.000361752
0.000352118
-0.00130557
0.000154256
-0.00178086
0.000315559
-0.00152961
-0.00024408
-0.000993489
-8.57025e-05
-0.000938096
-0.000333149
0.000283874
-0.000136275
0.000391071
7.07504e-05
0.000483802
0.000120601
2.28121e-05
1.21864e-05
1.41059e-05
1.25868e-05
1.88833e-05
9.45104e-06
1.55442e-05
6.53734e-06
1.57211e-05
5.01746e-06
1.70546e-05
3.25391e-06
2.12797e-05
3.18929e-07
2.5515e-05
-2.61558e-06
2.65843e-05
-5.89341e-06
5.7869e-05
-2.75095e-05
0.000107378
-3.11683e-05
5.17884e-05
0.000186722
0.000511278
0.000800217
0.00161325
0.00174509
0.00261064
0.0034137
0.00303855
0.00307638
0.00110636
0.00485264
0.000186708
0.000624978
-0.000133384
0.000458721
-0.000149202
0.00054667
-0.000130981
6.03045
0.722331
0.982105
-2.65597
-1.42471
-3.51662
1.61119
-7.24209
5.88121
-8.0404
6.70703
-3.84957
5.21386
0.623108
1.97088
0.799923
4.13801
0.415507
-1.5238
1.89065
-0.849277
0.697713
-0.699549
-0.57279
0.524357
0.142632
0.89181
0.182658
0.00542662
2.38213
-3.12558
1.71663
-2.0437
-0.654012
0.277351
-2.56553
2.44246
-2.54545
2.41523
-0.0886705
0.132074
0.343476
-0.144564
0.838954
-0.633949
0.298293
0.291505
-0.1474
0.0849778
-0.126802
-0.0131855
-0.066322
-0.0551438
-0.00229925
-0.0351664
0.030808
-0.0312639
0.0331113
-0.013718
0.00989955
-0.00349004
0.0139026
0.00405205
0.00447744
0.00735271
0.00584486
0.00491789
0.00322274
0.00507572
0.0054309
-0.00138542
0.00111552
0.00156382
-0.000846999
2.60766
0.169064
-0.307877
-1.31775
-1.52414
-1.73731
-0.982307
-1.72199
0.196021
-0.952338
1.07335
0.451594
1.63797
1.25905
1.3689
1.16468
1.19379
1.02165
-1.63752
1.00539
-0.629118
1.04039
-0.762023
-0.482372
0.322808
-0.224609
0.0928579
0.551335
0.354643
0.319235
-0.388324
-0.027381
-0.649849
-0.536344
-0.201116
-0.440757
0.0755011
-0.349677
0.205299
0.0616464
0.208214
0.176346
0.160632
0.27617
0.0174386
0.118991
0.234341
-0.150189
0.154652
-0.164202
0.00598115
-0.0736607
-0.0650307
0.00656177
-0.0340776
0.0108513
-0.0364405
0.00237804
-0.00737043
0.000300424
-0.00232857
-0.00173742
-0.00152321
-0.00279224
-0.000813125
0.000233723
0.000128427
9.31174e-05
0.00110591
0.00143711
-0.00126419
0.000298047
-2.81005e-05
-0.00137059
1.20421
0.523358
0.273921
0.503425
0.40134
0.367378
0.692241
0.207997
0.553931
-0.176317
0.247176
-0.46179
-0.0646584
-0.483177
-0.280206
-0.090962
1.66659
-0.69286
-0.184945
0.561974
-0.202584
-0.0315869
-0.1106
-0.109281
-0.0215195
0.0888629
0.405496
-0.0608697
-0.0159729
0.0801732
-0.155908
0.16031
0.0602133
-0.0907227
0.21804
-0.115056
0.125
-0.142155
0.0991341
-0.0652651
-0.0222719
-0.0064496
-0.0199168
0.0799237
-0.0855259
0.150553
0.113721
-0.0370326
-0.010041
-0.00451006
-0.0045632
-0.0136089
-0.0173844
-0.00519555
-0.0141016
0.0134749
-0.00380948
0.00272814
-0.00425725
0.00451266
0.000352247
0.00375308
0.00210337
0.00165423
0.00280524
0.00208234
0.0014271
0.000907361
0.00204944
0.0018157
-0.00078795
0.000484147
0.000130485
-0.000360097
1.17524
0.242005
-0.194949
-0.540512
-0.710642
-0.746684
-0.53096
-0.593302
-0.0971533
-0.239842
0.311417
0.314092
0.678291
0.672797
0.733518
1.05205
-0.958088
0.184882
-0.271926
-0.00890138
-0.144476
0.0350593
-0.0239271
0.0535634
-0.0477966
-0.0771978
-0.112844
0.227388
0.148968
0.0584132
-0.209597
-0.126619
-0.364659
-0.35486
-0.114888
-0.247605
-0.00169484
-0.163311
0.0929885
0.0609341
0.163861
0.134302
0.12483
0.176161
0.0473707
-0.016223
0.0495395
-0.0313655
0.0118774
-0.00792888
-0.00021874
-0.0136414
-0.0109641
0.00840668
-0.00349252
0.00243644
0.00236146
-0.0009296
-0.00589497
-0.00061118
-0.00189338
-0.00134478
-0.00122079
-0.00205638
-0.000164361
0.000760147
0.000579526
0.000554441
0.00153373
0.00111355
-0.000597256
0.000579923
-8.23158e-06
-0.000913468
0.223514
0.161424
0.00274979
0.13783
0.166223
0.183431
0.270928
0.237991
0.177455
0.120131
-0.00765543
-0.140823
-0.209525
-0.302655
-0.25177
0.123636
2.16404
-0.372541
0.101448
0.284277
0.0634806
0.0729177
-0.0306403
-0.0374092
-0.021666
0.0381283
0.138132
-0.0955881
-0.0491739
-0.00884938
0.0327627
0.0987925
0.193259
0.0342362
0.183827
0.0593552
-0.00581712
0.012501
-0.0441759
-0.0708349
-0.0682127
-0.0687567
-0.0340068
-0.00929171
-0.0474159
0.113778
0.0702784
-0.00556491
-0.00200336
-0.00621489
-0.000339564
-0.0101586
-0.0134178
-0.00578938
-0.0108241
0.0060039
-0.00590578
0.00172017
-0.00105941
0.00406793
0.000625772
0.00303737
0.00221143
0.00164484
0.00216534
0.00169453
0.00101703
0.000713605
0.0014131
0.00100443
-0.000594738
0.000512375
-0.000106844
-0.000166171
0.264605
0.106406
-0.0474498
-0.139619
-0.226167
-0.258874
-0.214278
-0.211174
-0.102386
-0.0852466
0.0381383
0.109909
0.221367
0.283505
0.361865
0.599766
-0.637091
0.208436
-0.0817979
-0.0863534
-0.0332048
0.00464088
-0.0103292
0.0480781
-0.0367632
-0.0363417
-0.124812
0.0503496
0.0160574
-0.052944
-0.134276
-0.13067
-0.194326
-0.205198
-0.0540859
-0.129164
0.00337464
-0.0692993
0.0614632
0.0449006
0.121834
0.101987
0.0902944
0.115685
0.0560663
-0.0393939
0.00818531
-0.00814937
0.0107921
-0.00289208
0.00391385
-0.00821774
-0.00107295
0.0061625
0.00205969
-0.000848067
0.0040471
-0.00207877
-0.00482745
-0.00152747
-0.00174232
-0.00132244
-0.00115833
-0.00147957
0.000160499
0.00103356
0.000831348
0.000859476
0.00165725
0.000848978
-0.000127258
0.000726738
8.93701e-06
-0.000615282
-0.0100313
-0.000952247
-0.0514929
-0.0160458
0.00619566
0.029409
0.0632212
0.0784672
0.0546907
0.0578375
0.00132094
-0.03329
-0.0858924
-0.114225
-0.103842
-0.0891331
0.3826
-0.189309
0.131362
0.14172
0.0961254
0.0710985
0.0196759
0.0114344
0.00537331
0.022138
0.0242919
-0.0928471
-0.0470446
-0.0218602
0.0591754
0.0827889
0.15882
0.0776377
0.135349
0.0711726
-0.0205943
0.0355239
-0.0581195
-0.0596485
-0.064029
-0.0803107
-0.0330562
-0.0594971
-0.0403813
0.0820171
0.0492071
0.00508448
-0.00220608
-0.0070881
-0.00304071
-0.00912326
-0.0129167
-0.00458773
-0.00864316
0.00250046
-0.005265
0.00195838
0.00106974
0.00378985
0.000898612
0.00247398
0.00220483
0.00170488
0.00166032
0.00109404
0.000394547
0.000238317
0.00095533
0.000545466
-0.000367031
0.000422548
-0.000343676
-0.000120984
-0.017866
-0.00199729
0.00413447
0.00988787
0.000139657
-0.00774687
-0.0109842
-0.0282565
-0.0328682
-0.0376244
-0.0192836
-0.000200002
0.0367223
0.0687483
0.118017
0.258007
-0.17229
0.162435
-0.033359
-0.047469
-0.0134471
-0.00524016
-0.00508926
0.0242611
-0.0178258
-0.0267076
-0.092726
0.00468616
-0.0154116
-0.0545315
-0.0845057
-0.0947901
-0.113321
-0.115009
-0.0383764
-0.0643218
0.00786556
-0.0234206
0.0468116
0.0300318
0.081415
0.0706435
0.0615175
0.0745278
0.0494923
-0.0450866
-0.00920445
-0.00276461
0.00886653
0.000790039
0.0107021