/*--------------------------------*- C++ -*----------------------------------*\
| =========                 |                                                 |
| \\      /  F ield         | OpenFOAM: The Open Source CFD Toolbox           |
|  \\    /   O peration     | Version:  2312                                  |
|   \\  /    A nd           | Website:  www.openfoam.com                      |
|    \\/     M anipulation  |                                                 |
\*---------------------------------------------------------------------------*/
FoamFile
{
    version     2.0;
    format      ascii;
    arch        "LSB;label=32;scalar=64";
    class       volScalarField;
    location    "50";
    object      magR;
}
// * * * * * * * * * * * * * * * * * * * * * * * * * * * * * * * * * * * * * //

dimensions      [0 2 -2 0 0 0 0];

internalField   nonuniform List<scalar> 
11040
(
1.15738
2.64598
4.64385
7.06463
10.5207
17.3968
33.0777
43.0346
45.9148
47.2794
49.001
50.95
52.6994
53.9074
54.4375
54.3088
53.5828
52.2749
50.4232
48.1213
45.3551
42.2702
39.1975
36.0908
32.8205
29.4363
26.0436
22.8138
19.8461
17.0203
14.1576
11.1907
8.37467
6.47269
5.83971
5.27949
3.38517
0.702373
0.436181
0.638394
1.28959
0.201139
0.234317
0.318151
0.560627
1.32271
2.93841
6.38624
10.8984
14.9383
18.2219
20.7583
22.5376
23.485
23.4789
22.5714
21.0038
19.0958
17.1919
15.5165
14.0847
12.8915
11.9243
11.1175
10.4267
9.89404
9.45987
9.03375
8.57068
8.04313
7.50214
6.96677
6.48693
6.08032
5.42303
3.9948
2.16987
1.30107
1.7264
4.05778
3.45296
6.95173
0.117567
0.08062
0.0761943
0.0714082
0.0551926
0.0256449
0.0514086
0.216466
0.49129
0.841643
1.30442
1.98648
3.00053
4.41785
6.1967
8.17975
10.1383
11.8131
12.9875
13.5741
13.6111
13.2656
12.7506
12.1569
11.5831
11.0257
10.4975
9.98375
9.48615
8.9904
8.51111
8.15083
7.91975
7.28047
5.66013
3.87247
3.69784
5.44689
6.6269
4.7095
5.32531
0.0811244
0.0768263
0.069877
0.0593453
0.0479681
0.0375604
0.0255937
0.0148573
0.00827852
0.00495251
0.00323658
0.00217501
0.00165055
0.00790221
0.0427293
0.146247
0.374618
0.809129
1.5333
2.59062
3.96516
5.47742
6.88733
8.08714
9.0477
9.7259
10.1411
10.3328
10.3568
10.2611
10.1016
9.98163
9.85102
9.16409
7.67247
6.50218
6.95459
8.35176
8.48405
6.12913
6.19801
0.0555767
0.0540467
0.0488808
0.041598
0.0345503
0.0294597
0.0259245
0.0224492
0.0185953
0.0149256
0.0118222
0.00919651
0.00682329
0.00466185
0.0012448
0.00026238
0.000347853
0.000919728
0.00310004
0.00895926
0.0562178
0.209348
0.522453
1.04212
1.80117
2.79717
3.98227
5.27769
6.58754
7.81534
8.89068
9.78461
10.3667
10.2592
9.48492
9.00888
9.67136
10.6859
10.4517
8.25519
8.2231
0.0375279
0.0380487
0.0373769
0.0348624
0.031092
0.0270892
0.0235428
0.0204878
0.0176242
0.0148057
0.0121907
0.0100482
0.0085098
0.00745452
0.00654767
0.00569913
0.00465249
0.00325628
0.00113216
8.1015e-05
0.000506759
0.00138684
0.00288342
0.00608754
0.0196274
0.0770772
0.228294
0.543235
1.10774
2.0143
3.33134
5.02538
6.84169
8.32647
9.26177
10.0361
11.1525
12.1655
12.0221
10.4332
10.2957
0.0258466
0.0266421
0.0272323
0.0266912
0.0249888
0.0226239
0.0201245
0.0177642
0.015549
0.0134225
0.0114275
0.00967894
0.00827223
0.00722298
0.00647844
0.00590027
0.00542025
0.00494378
0.00441337
0.0037226
0.00290449
0.00213578
0.000890778
0.00102085
0.00242792
1.48824e-05
3.61744e-05
0.000605455
0.0111227
0.0633317
0.232269
0.673811
1.5604
2.98239
4.89695
7.14561
9.48139
11.3708
11.9618
11.1079
10.9766
0.0179818
0.0186165
0.0194364
0.0197946
0.0194129
0.0184078
0.017052
0.0155568
0.0139964
0.0123787
0.0107484
0.00920779
0.00787096
0.00679763
0.00597157
0.00534825
0.00487854
0.00449815
0.0041522
0.00382841
0.00349077
0.00319873
0.00292877
0.00250106
0.00192896
0.00143397
0.000323691
0.000176066
0.000622971
0.00322931
0.00224113
0.00787381
0.0474493
0.225713
0.76325
1.97986
3.96019
6.26716
7.88043
8.07591
8.46453
0.0126468
0.0130858
0.0137588
0.0143294
0.0145407
0.0143274
0.013758
0.0129429
0.0119593
0.0108581
0.00969362
0.00854064
0.00748545
0.00658759
0.00585536
0.00526996
0.00480829
0.00443848
0.00411712
0.00381589
0.00354226
0.00332303
0.00320092
0.00315242
0.00301743
0.00282784
0.00251822
0.00200089
0.00143442
0.000516766
1.71783e-05
0.000374076
0.00128696
0.00791074
0.00132404
0.0740083
0.423728
1.25582
2.28585
2.72602
3.28672
0.00894788
0.00923462
0.00970458
0.0102084
0.010585
0.0107388
0.0106479
0.0103393
0.00985325
0.00922384
0.0084905
0.00770221
0.00691754
0.00619185
0.00555315
0.00500742
0.0045545
0.00418807
0.00388721
0.0036176
0.00335846
0.00312286
0.00293456
0.00280879
0.00274094
0.00269245
0.0026726
0.00262261
0.00253658
0.00220098
0.0016085
0.00114349
0.000219349
3.8016e-05
2.93699e-05
0.00108621
8.86695e-05
0.041917
0.170109
0.306457
0.434439
0.00635521
0.00654114
0.00684883
0.00722026
0.00757176
0.0078331
0.00796232
0.00794446
0.00778266
0.00749006
0.00708886
0.00660854
0.00608702
0.00556657
0.00507716
0.00463575
0.00425133
0.00392776
0.00365932
0.00342516
0.00320069
0.00298372
0.00278813
0.00262927
0.0025225
0.00246399
0.00243301
0.00241145
0.00239481
0.00237078
0.00229472
0.0021524
0.00185602
0.0014533
0.000357242
2.90063e-05
7.98267e-06
0.0011915
0.00760027
0.00194857
0.0255569
0.00452256
0.00464289
0.00483825
0.00509087
0.00536005
0.00560551
0.00579442
0.00590394
0.00592136
0.00584307
0.00567725
0.00543634
0.00513995
0.00481325
0.00447947
0.00415626
0.00385508
0.00358458
0.00334794
0.0031393
0.0029465
0.00276432
0.00259525
0.00244712
0.00233194
0.00225895
0.00221692
0.00218421
0.00214373
0.00209342
0.00201713
0.00190616
0.00183804
0.00185926
0.00172552
0.00111698
0.000374827
6.71767e-06
1.46851e-05
4.8409e-05
1.67663e-06
0.0032209
0.00329884
0.00342181
0.0035875
0.00377685
0.00396875
0.00414385
0.00428473
0.00437719
0.00441162
0.00438529
0.0043009
0.00416546
0.00399178
0.00379462
0.00358649
0.0033777
0.00317611
0.00298726
0.00281316
0.00265159
0.00250229
0.00236343
0.00223556
0.00212584
0.00203935
0.00197343
0.00192128
0.00187005
0.00181181
0.00173745
0.00163456
0.00151752
0.00145856
0.00151176
0.00155221
0.00142574
0.00120957
0.0011113
0.000658264
0.00012054
0.00229308
0.00234395
0.00242126
0.00252818
0.00265579
0.00279334
0.00293064
0.00305733
0.00316319
0.00323914
0.00327968
0.00328224
0.00324736
0.00317909
0.00308409
0.00296933
0.00284123
0.0027055
0.00256793
0.00243269
0.0023026
0.00218161
0.00206911
0.00196263
0.00186431
0.00177495
0.00169875
0.0016359
0.00158148
0.00152992
0.00147681
0.00141449
0.00133463
0.00125733
0.00123452
0.00127866
0.00132529
0.00138183
0.0016384
0.00208249
0.00165085
0.00163084
0.00166421
0.00171306
0.00178159
0.00186574
0.00195994
0.00205906
0.00215757
0.00224939
0.00232823
0.00238912
0.00242845
0.00244398
0.00243546
0.00240419
0.00235329
0.00228621
0.00220688
0.00211934
0.00202739
0.00193349
0.001843
0.00175796
0.00167578
0.00159718
0.00152317
0.00145662
0.00139807
0.00134712
0.00130205
0.00126122
0.00122155
0.00117816
0.00112981
0.00109245
0.00109217
0.00112272
0.0011356
0.00116638
0.00140574
0.00164944
0.0011584
0.00118032
0.00121142
0.00125512
0.00130979
0.00137259
0.00144087
0.0015118
0.00158203
0.00164779
0.00170558
0.00175246
0.00178591
0.00180439
0.00180744
0.00179554
0.00177045
0.00173407
0.00168851
0.00163625
0.00157837
0.00151857
0.00145979
0.00140138
0.00134389
0.00128822
0.00123561
0.00118649
0.00114301
0.00110492
0.00107152
0.0010415
0.0010128
0.000982393
0.000951272
0.000929221
0.000923162
0.000922659
0.000906994
0.00091116
0.000973083
0.000823756
0.000838009
0.000857905
0.000885668
0.000920863
0.000962088
0.00100792
0.00105686
0.00110712
0.00115662
0.00120325
0.00124513
0.00128045
0.00130771
0.00132594
0.00133464
0.00133367
0.00132359
0.00130512
0.00127959
0.00124731
0.00121047
0.00117177
0.00113132
0.00109011
0.00104905
0.00100859
0.000970982
0.000936618
0.00090559
0.000877309
0.000851004
0.000825204
0.000798699
0.000770556
0.000741958
0.00071633
0.000698825
0.000683302
0.000661289
0.000645618
0.000593437
0.0006028
0.000615839
0.000633853
0.00065692
0.000684337
0.000715258
0.000748803
0.00078398
0.000819611
0.000854489
0.000887477
0.000917385
0.000943079
0.000963561
0.000978087
0.000986164
0.000987538
0.000982141
0.000970496
0.000952719
0.000930219
0.000904672
0.000876926
0.000847804
0.00081824
0.000788749
0.000760153
0.000732608
0.000706031
0.000680254
0.000655052
0.000629944
0.000604419
0.000578185
0.000551364
0.000525044
0.000501136
0.000480142
0.000463478
0.000446777
0.000437771
0.000444183
0.000453082
0.000465225
0.00048089
0.000499705
0.000521118
0.000544536
0.000569334
0.000594766
0.000620074
0.000644512
0.000667301
0.000687642
0.000704783
0.000718109
0.000727144
0.000731621
0.000731382
0.000726597
0.000716749
0.000702729
0.000686227
0.000667564
0.000647524
0.00062679
0.000605127
0.000582985
0.000560722
0.000538394
0.00051619
0.000494118
0.000472256
0.000450326
0.000428253
0.000405983
0.000384144
0.000363346
0.000342981
0.000326948
0.000311094
0.00033093
0.000335448
0.000341697
0.000350104
0.000361028
0.000374281
0.000389472
0.000406179
0.000423985
0.000442402
0.00046094
0.000479129
0.000496464
0.000512411
0.000526474
0.000538164
0.000547092
0.000552906
0.00055534
0.000554344
0.000549263
0.000540724
0.000529842
0.000517102
0.000503118
0.000487922
0.000471864
0.000454946
0.000437612
0.000419778
0.000401891
0.000384051
0.000366413
0.000348881
0.000331421
0.00031389
0.000296591
0.000279968
0.000263038
0.000248615
0.00023374
0.000254942
0.000258161
0.000262629
0.00026857
0.000276351
0.00028589
0.000296886
0.000309037
0.000322038
0.000335566
0.000349284
0.000362882
0.000376024
0.000388356
0.000399517
0.000409168
0.000417
0.000422744
0.000426189
0.000427321
0.000425628
0.00042098
0.000414396
0.000405998
0.000396161
0.000385143
0.000373185
0.000360226
0.000346818
0.000333477
0.000319849
0.000306088
0.000292375
0.000278654
0.000264827
0.00025084
0.00023674
0.000222817
0.000208448
0.000195497
0.000181537
0.000199426
0.000201754
0.00020501
0.000209286
0.000214936
0.000221918
0.000230002
0.00023895
0.000248534
0.000258517
0.000268654
0.000278727
0.000288493
0.000297709
0.000306115
0.000313483
0.000319562
0.000324176
0.000327103
0.000328326
0.000327481
0.000324624
0.000320246
0.000314453
0.000307443
0.000299345
0.000290386
0.000280919
0.000271002
0.000260767
0.000250306
0.000239708
0.000228948
0.000217979
0.000206777
0.000195383
0.000183884
0.000172407
0.000160605
0.000150074
0.000138385
0.000157949
0.00015966
0.000162081
0.000165213
0.000169386
0.000174579
0.000180615
0.000187298
0.000194458
0.000201913
0.000209481
0.000216999
0.000224293
0.000231188
0.000237494
0.000243047
0.000247673
0.000251219
0.000253536
0.000254568
0.000254026
0.000251836
0.00024839
0.000243776
0.000238145
0.000231771
0.000224807
0.000217468
0.000209718
0.000201657
0.00019344
0.000184996
0.000176438
0.000167815
0.000159148
0.000150493
0.000142007
0.000133736
0.000125376
0.000118431
0.00011017
0.000126402
0.000127691
0.000129515
0.000131851
0.000134983
0.000138909
0.000143481
0.000148544
0.000153964
0.000159601
0.000165317
0.000170988
0.000176486
0.00018168
0.000186437
0.000190632
0.000194145
0.000196871
0.000198686
0.000199573
0.000199231
0.000197654
0.0001951
0.000191667
0.000187537
0.000182867
0.000177711
0.000172171
0.000166295
0.000159993
0.000153672
0.000147443
0.000141176
0.000134961
0.000128821
0.000122751
0.000116868
0.000111199
0.000105477
0.000100753
9.54498e-05
0.000102046
0.000103028
0.00010443
0.000106201
0.000108591
0.000111602
0.000115112
0.000118996
0.000123147
0.000127456
0.00013182
0.000136137
0.000140319
0.000144259
0.000147869
0.000151049
0.000153721
0.000155793
0.000157189
0.000157866
0.00015763
0.000156482
0.000154624
0.000152174
0.000149238
0.000145845
0.000142063
0.000137912
0.000133563
0.000128925
0.000124269
0.000119827
0.000115416
0.000111032
0.000106682
0.000102382
9.82111e-05
9.41964e-05
9.02204e-05
8.66132e-05
8.39427e-05
8.30014e-05
8.37603e-05
8.48564e-05
8.62249e-05
8.80759e-05
9.04177e-05
9.31484e-05
9.61647e-05
9.93815e-05
0.000102712
0.000106075
0.000109394
0.000112598
0.000115607
0.000118358
0.000120775
0.000122803
0.000124375
0.000125435
0.000125955
0.000125797
0.00012495
0.000123583
0.000121772
0.000119559
0.000116984
0.000114121
0.000111009
0.000107783
0.000104512
0.000101065
9.768e-05
9.45356e-05
9.13141e-05
8.81144e-05
8.50106e-05
8.20506e-05
7.92399e-05
7.65934e-05
7.39417e-05
7.29083e-05
6.79412e-05
6.85445e-05
6.9414e-05
7.04868e-05
7.19428e-05
7.3789e-05
7.59416e-05
7.83139e-05
8.08369e-05
8.34401e-05
8.60605e-05
8.86361e-05
9.11129e-05
9.34307e-05
9.55389e-05
9.73854e-05
9.89263e-05
0.000100115
0.000100914
0.000101303
0.00010119
0.000100555
9.9545e-05
9.81924e-05
9.65461e-05
9.46674e-05
9.25892e-05
9.03713e-05
8.80653e-05
8.57048e-05
8.31312e-05
8.06016e-05
7.82842e-05
7.59273e-05
7.36393e-05
7.14939e-05
6.95081e-05
6.76569e-05
6.60292e-05
6.42483e-05
6.42385e-05
5.59275e-05
5.64056e-05
5.71056e-05
5.79618e-05
5.91233e-05
6.06002e-05
6.23188e-05
6.42093e-05
6.62105e-05
6.827e-05
7.03324e-05
7.23534e-05
7.42855e-05
7.60874e-05
7.77161e-05
7.91377e-05
8.03169e-05
8.12244e-05
8.18313e-05
8.21259e-05
8.20327e-05
8.1548e-05
8.07931e-05
7.97944e-05
7.86176e-05
7.72888e-05
7.58393e-05
7.42984e-05
7.26489e-05
7.09455e-05
6.90619e-05
6.72613e-05
6.55918e-05
6.39752e-05
6.24487e-05
6.10439e-05
5.97645e-05
5.85812e-05
5.76335e-05
5.64321e-05
5.71247e-05
4.62522e-05
4.66412e-05
4.72094e-05
4.79039e-05
4.88457e-05
5.00433e-05
5.14341e-05
5.29593e-05
5.4567e-05
5.62153e-05
5.78581e-05
5.94617e-05
6.0987e-05
6.24035e-05
6.36756e-05
6.47811e-05
6.56931e-05
6.63943e-05
6.68651e-05
6.70977e-05
6.70433e-05
6.67064e-05
6.61721e-05
6.54632e-05
6.46023e-05
6.36279e-05
6.25547e-05
6.14154e-05
6.02202e-05
5.90422e-05
5.78089e-05
5.6568e-05
5.54297e-05
5.44609e-05
5.34907e-05
5.25702e-05
5.17302e-05
5.09494e-05
5.03998e-05
4.95111e-05
5.05824e-05
3.84088e-05
3.87232e-05
3.91915e-05
3.97633e-05
4.05384e-05
4.15228e-05
4.26631e-05
4.39094e-05
4.52181e-05
4.65533e-05
4.78781e-05
4.91652e-05
5.03846e-05
5.15118e-05
5.25204e-05
5.33925e-05
5.41087e-05
5.46554e-05
5.50206e-05
5.52e-05
5.51583e-05
5.49198e-05
5.45379e-05
5.40275e-05
5.34109e-05
5.27069e-05
5.19525e-05
5.11768e-05
5.03912e-05
4.96225e-05
4.88343e-05
4.80518e-05
4.73718e-05
4.67302e-05
4.60736e-05
4.54513e-05
4.489e-05
4.43595e-05
4.40496e-05
4.33583e-05
4.46048e-05
3.2006e-05
3.22619e-05
3.26503e-05
3.31282e-05
3.3776e-05
3.45947e-05
3.55421e-05
3.65728e-05
3.76522e-05
3.87462e-05
3.98281e-05
4.08719e-05
4.18584e-05
4.27652e-05
4.3576e-05
4.42731e-05
4.48445e-05
4.52778e-05
4.55648e-05
4.57007e-05
4.56597e-05
4.54682e-05
4.51784e-05
4.48148e-05
4.43928e-05
4.39348e-05
4.34496e-05
4.29571e-05
4.24726e-05
4.19865e-05
4.14958e-05
4.10169e-05
4.06412e-05
4.02107e-05
3.98037e-05
3.94228e-05
3.90757e-05
3.87261e-05
3.85738e-05
3.80208e-05
3.93206e-05
2.67487e-05
2.69571e-05
2.72834e-05
2.76883e-05
2.82374e-05
2.89272e-05
2.97229e-05
3.05853e-05
3.14859e-05
3.2394e-05
3.32883e-05
3.41453e-05
3.49524e-05
3.56906e-05
3.635e-05
3.69147e-05
3.73787e-05
3.77298e-05
3.79656e-05
3.8082e-05
3.80595e-05
3.79293e-05
3.77284e-05
3.74748e-05
3.71855e-05
3.68716e-05
3.6547e-05
3.62111e-05
3.58909e-05
3.55807e-05
3.53278e-05
3.50294e-05
3.48775e-05
3.47411e-05
3.45225e-05
3.43161e-05
3.41192e-05
3.38959e-05
3.3843e-05
3.33814e-05
3.4652e-05
2.24083e-05
2.258e-05
2.28564e-05
2.32068e-05
2.36784e-05
2.42666e-05
2.49414e-05
2.56704e-05
2.64289e-05
2.71921e-05
2.79404e-05
2.86551e-05
2.93245e-05
2.99352e-05
3.04793e-05
3.09472e-05
3.13334e-05
3.16297e-05
3.18345e-05
3.19396e-05
3.19464e-05
3.18636e-05
3.17336e-05
3.1559e-05
3.13562e-05
3.11408e-05
3.09241e-05
3.07165e-05
3.05213e-05
3.03475e-05
3.02104e-05
3.00587e-05
3.00422e-05
3.0048e-05
2.99103e-05
2.98e-05
2.97067e-05
2.9588e-05
2.96171e-05
2.92368e-05
3.04628e-05
1.88065e-05
1.89492e-05
1.91884e-05
1.94979e-05
1.99086e-05
2.04179e-05
2.09949e-05
2.16167e-05
2.22598e-05
2.29078e-05
2.35402e-05
2.41455e-05
2.47085e-05
2.52232e-05
2.56799e-05
2.60764e-05
2.64066e-05
2.66676e-05
2.68568e-05
2.69634e-05
2.69888e-05
2.69466e-05
2.68632e-05
2.67502e-05
2.66181e-05
2.64811e-05
2.63497e-05
2.6226e-05
2.61231e-05
2.60344e-05
2.59695e-05
2.58856e-05
2.59354e-05
2.59904e-05
2.58929e-05
2.5844e-05
2.58209e-05
2.57813e-05
2.58746e-05
2.55793e-05
2.67849e-05
1.58032e-05
1.59242e-05
1.61359e-05
1.64141e-05
1.67805e-05
1.72259e-05
1.77257e-05
1.82595e-05
1.88096e-05
1.93624e-05
1.9902e-05
2.04181e-05
2.08993e-05
2.13391e-05
2.173e-05
2.20707e-05
2.23579e-05
2.25909e-05
2.27684e-05
2.28851e-05
2.29402e-05
2.29407e-05
2.29082e-05
2.28427e-05
2.27599e-05
2.267e-05
2.25839e-05
2.25128e-05
2.24473e-05
2.23986e-05
2.23664e-05
2.23382e-05
2.23905e-05
2.24674e-05
2.24306e-05
2.24331e-05
2.24536e-05
2.24583e-05
2.2572e-05
2.23245e-05
2.34934e-05
1.32896e-05
1.33938e-05
1.35849e-05
1.3841e-05
1.41712e-05
1.45669e-05
1.50049e-05
1.5468e-05
1.59427e-05
1.64173e-05
1.68804e-05
1.73235e-05
1.77379e-05
1.81179e-05
1.84576e-05
1.87553e-05
1.90099e-05
1.92212e-05
1.93918e-05
1.95162e-05
1.95953e-05
1.96322e-05
1.96339e-05
1.96066e-05
1.95551e-05
1.94919e-05
1.94261e-05
1.93615e-05
1.92947e-05
1.92474e-05
1.92237e-05
1.92477e-05
1.92589e-05
1.94024e-05
1.95178e-05
1.95068e-05
1.95461e-05
1.95803e-05
1.96985e-05
1.94804e-05
2.05691e-05
1.1179e-05
1.12708e-05
1.14465e-05
1.16839e-05
1.19847e-05
1.23391e-05
1.27267e-05
1.31338e-05
1.35485e-05
1.39608e-05
1.43619e-05
1.47448e-05
1.51034e-05
1.54331e-05
1.57308e-05
1.59939e-05
1.62222e-05
1.6417e-05
1.65782e-05
1.67094e-05
1.68014e-05
1.68618e-05
1.68957e-05
1.68981e-05
1.68799e-05
1.68451e-05
1.67929e-05
1.67231e-05
1.66614e-05
1.66199e-05
1.66074e-05
1.66299e-05
1.66591e-05
1.6793e-05
1.69069e-05
1.69187e-05
1.69819e-05
1.70413e-05
1.71653e-05
1.70016e-05
1.79886e-05
9.403e-06
9.48568e-06
9.64913e-06
9.86935e-06
1.01439e-05
1.04608e-05
1.08068e-05
1.11676e-05
1.15349e-05
1.18985e-05
1.2252e-05
1.25871e-05
1.29014e-05
1.3189e-05
1.34502e-05
1.3682e-05
1.38861e-05
1.40612e-05
1.42104e-05
1.43326e-05
1.4431e-05
1.45106e-05
1.45714e-05
1.46149e-05
1.46348e-05
1.46299e-05
1.45987e-05
1.45596e-05
1.4514e-05
1.448e-05
1.44681e-05
1.44719e-05
1.44767e-05
1.45578e-05
1.46364e-05
1.46515e-05
1.47164e-05
1.47859e-05
1.49098e-05
1.47988e-05
1.56841e-05
7.90657e-06
7.98245e-06
8.13461e-06
8.33922e-06
8.58734e-06
8.87153e-06
9.179e-06
9.49928e-06
9.82553e-06
1.01501e-05
1.04666e-05
1.07675e-05
1.10484e-05
1.13051e-05
1.15364e-05
1.17417e-05
1.19226e-05
1.20801e-05
1.22162e-05
1.23332e-05
1.24274e-05
1.25081e-05
1.25756e-05
1.26282e-05
1.26656e-05
1.26836e-05
1.26911e-05
1.26894e-05
1.26822e-05
1.26649e-05
1.26354e-05
1.26131e-05
1.26003e-05
1.26232e-05
1.26483e-05
1.26581e-05
1.27037e-05
1.27554e-05
1.28518e-05
1.27816e-05
1.34894e-05
6.64588e-06
6.71644e-06
6.8577e-06
7.04454e-06
7.26814e-06
7.52028e-06
7.79231e-06
8.07554e-06
8.36417e-06
8.65336e-06
8.93769e-06
9.21136e-06
9.46884e-06
9.70544e-06
9.91779e-06
1.01045e-05
1.02666e-05
1.04073e-05
1.05296e-05
1.06365e-05
1.07342e-05
1.08201e-05
1.09024e-05
1.09726e-05
1.1028e-05
1.10805e-05
1.11297e-05
1.11701e-05
1.11982e-05
1.12152e-05
1.12185e-05
1.12137e-05
1.12088e-05
1.12221e-05
1.12229e-05
1.12124e-05
1.12271e-05
1.12468e-05
1.12961e-05
1.12446e-05
1.17681e-05
5.58547e-06
5.65242e-06
5.78226e-06
5.94999e-06
6.14524e-06
6.36464e-06
6.60224e-06
6.85082e-06
7.10622e-06
7.36396e-06
7.61883e-06
7.86678e-06
8.10326e-06
8.32461e-06
8.52624e-06
8.7054e-06
8.85946e-06
8.9886e-06
9.09409e-06
9.17902e-06
9.24656e-06
9.30437e-06
9.35133e-06
9.3908e-06
9.43083e-06
9.46984e-06
9.50553e-06
9.54079e-06
9.56818e-06
9.58044e-06
9.59283e-06
9.61162e-06
9.63357e-06
9.6482e-06
9.66418e-06
9.681e-06
9.69549e-06
9.70947e-06
9.73444e-06
9.71641e-06
1.00097e-05
4.69319e-06
4.75914e-06
4.88004e-06
5.0283e-06
5.194e-06
5.37721e-06
5.57431e-06
5.78445e-06
6.00489e-06
6.23323e-06
6.46409e-06
6.69263e-06
6.91269e-06
7.12076e-06
7.3134e-06
7.48966e-06
7.6489e-06
7.79165e-06
7.91926e-06
8.03105e-06
8.13231e-06
8.21605e-06
8.29111e-06
8.36196e-06
8.42933e-06
8.49344e-06
8.55439e-06
8.60287e-06
8.64108e-06
8.67581e-06
8.70205e-06
8.71549e-06
8.72815e-06
8.74527e-06
8.74344e-06
8.73316e-06
8.72691e-06
8.71495e-06
8.69822e-06
8.6539e-06
8.81564e-06
3.94017e-06
4.00429e-06
4.11738e-06
4.25108e-06
4.39455e-06
4.54645e-06
4.70524e-06
4.87078e-06
5.04394e-06
5.22663e-06
5.41944e-06
5.6212e-06
5.82752e-06
6.03162e-06
6.22482e-06
6.39864e-06
6.54646e-06
6.66392e-06
6.7501e-06
6.8092e-06
6.83923e-06
6.8504e-06
6.85188e-06
6.84959e-06
6.84757e-06
6.84913e-06
6.85213e-06
6.86098e-06
6.87783e-06
6.89829e-06
6.9246e-06
6.95333e-06
6.97894e-06
7.01208e-06
7.02987e-06
7.04345e-06
7.07354e-06
7.095e-06
7.09126e-06
7.10795e-06
7.13833e-06
3.30314e-06
3.35702e-06
3.45321e-06
3.56792e-06
3.69465e-06
3.83177e-06
3.97537e-06
4.12059e-06
4.26368e-06
4.40328e-06
4.54075e-06
4.68036e-06
4.8277e-06
4.98832e-06
5.16628e-06
5.36238e-06
5.57393e-06
5.79505e-06
6.01762e-06
6.2321e-06
6.43219e-06
6.6088e-06
6.76268e-06
6.88811e-06
6.98893e-06
7.06764e-06
7.12885e-06
7.17501e-06
7.20803e-06
7.2308e-06
7.23856e-06
7.23313e-06
7.21279e-06
7.17997e-06
7.12987e-06
7.06969e-06
7.00472e-06
6.92956e-06
6.83273e-06
6.75437e-06
6.72861e-06
2.77369e-06
2.81249e-06
2.87884e-06
2.95382e-06
3.03761e-06
3.13818e-06
3.2591e-06
3.40034e-06
3.55748e-06
3.7225e-06
3.88431e-06
4.03139e-06
4.15406e-06
4.24699e-06
4.30936e-06
4.34517e-06
4.36128e-06
4.36512e-06
4.36335e-06
4.36194e-06
4.35807e-06
4.35337e-06
4.34977e-06
4.35022e-06
4.35536e-06
4.36754e-06
4.3881e-06
4.41709e-06
4.45188e-06
4.49311e-06
4.53628e-06
4.58287e-06
4.63067e-06
4.68511e-06
4.72801e-06
4.77544e-06
4.84235e-06
4.90751e-06
4.94029e-06
5.05588e-06
4.93955e-06
2.34995e-06
2.39054e-06
2.44631e-06
2.49189e-06
2.52558e-06
2.55551e-06
2.58897e-06
2.63274e-06
2.69498e-06
2.78562e-06
2.91447e-06
3.09006e-06
3.31582e-06
3.58945e-06
3.90206e-06
4.24028e-06
4.58855e-06
4.93207e-06
5.2581e-06
5.55561e-06
5.82442e-06
6.06249e-06
6.26618e-06
6.43365e-06
6.56959e-06
6.67774e-06
6.76097e-06
6.82112e-06
6.85554e-06
6.86744e-06
6.85519e-06
6.81676e-06
6.74877e-06
6.65997e-06
6.55724e-06
6.42942e-06
6.29056e-06
6.15175e-06
5.99119e-06
5.87853e-06
5.62017e-06
2.01707e-06
2.07021e-06
2.14738e-06
2.21983e-06
2.27427e-06
2.30584e-06
2.31189e-06
2.29419e-06
2.2598e-06
2.22023e-06
2.18897e-06
2.1784e-06
2.19688e-06
2.2463e-06
2.32163e-06
2.41381e-06
2.51177e-06
2.60682e-06
2.69175e-06
2.76696e-06
2.82839e-06
2.87595e-06
2.91631e-06
2.95989e-06
3.00762e-06
3.06121e-06
3.10746e-06
3.16138e-06
3.23348e-06
3.30684e-06
3.37685e-06
3.44875e-06
3.53676e-06
3.60874e-06
3.68837e-06
3.8006e-06
3.86913e-06
3.88169e-06
3.87183e-06
3.6774e-06
4.01266e-06
1.74106e-06
1.75042e-06
1.82486e-06
2.02653e-06
2.38343e-06
2.86939e-06
3.42953e-06
4.01168e-06
4.57618e-06
5.09539e-06
5.5512e-06
5.93293e-06
6.23601e-06
6.46125e-06
6.61323e-06
6.69978e-06
6.73093e-06
6.71746e-06
6.67045e-06
6.5991e-06
6.5134e-06
6.45006e-06
6.38859e-06
6.33299e-06
6.28354e-06
6.23199e-06
6.17787e-06
6.10021e-06
5.99219e-06
5.86596e-06
5.73112e-06
5.60304e-06
5.46581e-06
5.29552e-06
5.13201e-06
4.98404e-06
4.81143e-06
4.61221e-06
4.38601e-06
4.31034e-06
3.69673e-06
45.281
72.021
83.7844
76.4981
46.5282
15.4022
2.51282
0.36539
0.10638
0.0317208
0.0115499
0.00530755
0.00448981
0.00392768
0.00335853
0.00278482
0.00164278
0.000338697
0.000242042
0.000123826
0.00017233
1.75621e-05
1.2004e-05
5.13995e-05
0.000144262
0.000258722
0.000427657
0.000479926
0.000483136
0.000385019
0.000406642
0.000275203
0.000429311
0.000400612
0.000421757
0.000368281
0.000322259
0.000353113
0.000298284
0.000281518
0.000267102
0.000251875
0.000231748
0.00020842
0.000189853
0.000198479
0.000203805
0.000185539
0.00016341
0.00015104
0.000143338
0.000138269
0.000132205
0.00012657
0.000120887
0.000115222
0.000108915
0.000114823
0.00010072
8.90465e-05
8.06171e-05
7.35676e-05
6.66858e-05
5.96633e-05
5.26663e-05
4.58545e-05
3.93757e-05
3.33184e-05
2.77924e-05
2.28148e-05
1.85063e-05
1.46043e-05
1.27151e-05
8.9341e-06
29.5355
63.1602
81.8445
89.881
73.0289
36.6219
9.93324
1.52951
0.254773
0.0613077
0.0203968
0.00826549
0.00471918
0.00281142
0.0018076
0.000710416
6.94379e-05
6.80984e-07
0.000632376
0.00133368
0.00111171
0.000907966
0.000410961
1.14898e-07
1.02528e-05
1.6546e-05
2.96517e-07
8.56859e-05
0.000202415
0.000308346
0.000463098
0.000352583
0.000437534
0.000372031
0.000359574
0.000303865
0.000260562
0.000291961
0.000263786
0.000251641
0.00024467
0.000236891
0.000225417
0.000203481
0.000181828
0.000214293
0.000218102
0.000217158
0.000200838
0.000185601
0.000175747
0.00017042
0.000164974
0.000159126
0.000152793
0.000146022
0.000138797
0.000126336
0.000101314
8.7705e-05
7.81289e-05
7.06546e-05
6.38521e-05
5.70866e-05
5.043e-05
4.39262e-05
3.77629e-05
3.20463e-05
2.68573e-05
2.21838e-05
1.81644e-05
1.45317e-05
1.27568e-05
9.18092e-06
13.9226
39.1517
63.1167
84.0579
87.8089
61.7071
26.215
6.21505
0.921167
0.149737
0.0378334
0.0131943
0.00423605
0.00121842
0.0003998
0.000101085
0.000111378
0.00352655
0.00319947
0.00519412
0.0048515
0.00585179
0.00443682
0.00162775
0.00508734
0.0032581
4.48478e-05
0.000211813
1.64844e-05
3.67397e-05
0.000149908
0.000205603
0.000280745
0.000357848
0.000384018
0.000323417
0.000237013
0.000219594
0.000215405
0.000205396
0.000204586
0.000206566
0.000203979
0.000189216
0.000172746
0.000165349
0.000177145
0.000195111
0.000193025
0.000178744
0.000166418
0.000158425
0.000154357
0.000149963
0.000145242
0.00013949
0.000135265
0.000108539
9.83986e-05
8.67263e-05
7.60592e-05
6.76873e-05
6.07378e-05
5.42987e-05
4.81001e-05
4.20125e-05
3.62476e-05
3.09358e-05
2.61333e-05
2.18069e-05
1.81077e-05
1.47558e-05
1.31033e-05
9.68677e-06
7.93104
16.7752
34.4486
59.5244
80.4416
77.6199
48.6802
18.9172
4.40765
0.691485
0.11006
0.0251782
0.00680527
0.00162164
4.1784e-05
0.00162084
0.00175732
0.0238845
0.0509754
0.0726951
0.0793137
0.0712808
0.0562886
0.0334619
0.0148135
0.00495796
0.00421219
0.00175405
0.00519488
0.00267657
0.000617095
1.70494e-05
1.98081e-05
3.0622e-05
0.000158213
0.000248725
0.000244363
0.000231407
0.000216202
0.000184468
0.000169905
0.000171131
0.000173229
0.00016577
0.000160988
0.000128557
0.000119866
0.000137412
0.000149616
0.000146051
0.000134844
0.000123098
0.000116649
0.000111946
0.00010852
0.000104315
0.000101129
9.95368e-05
9.4993e-05
8.59134e-05
7.51286e-05
6.57102e-05
5.81363e-05
5.17844e-05
4.60043e-05
4.03718e-05
3.50245e-05
3.01013e-05
2.5653e-05
2.1647e-05
1.82279e-05
1.51201e-05
1.35689e-05
1.02379e-05
11.3611
8.7516
6.64952
26.4242
54.1562
73.142
65.7326
39.1739
15.5163
4.08514
0.757196
0.113558
0.0103674
0.0165121
6.5951e-06
0.0156244
0.0833023
0.215739
0.33719
0.439616
0.503652
0.520973
0.498611
0.435317
0.350044
0.254567
0.164693
0.0905352
0.0369221
0.0109248
0.00246616
0.00543476
0.00280316
2.76573e-05
4.32246e-06
1.82106e-05
2.52867e-05
8.978e-05
0.000156266
0.000188551
0.000183237
0.00017081
0.000157479
0.0001421
0.000141992
0.000119679
9.84455e-05
0.000102989
0.000120422
0.000131956
0.000131718
0.000121755
0.000112051
0.000103896
9.86673e-05
9.40578e-05
8.95834e-05
9.06774e-05
8.98476e-05
8.43069e-05
7.49318e-05
6.50707e-05
5.66121e-05
4.98846e-05
4.42734e-05
3.90461e-05
3.41211e-05
2.95731e-05
2.54385e-05
2.17064e-05
1.85128e-05
1.55988e-05
1.41262e-05
1.08084e-05
14.5173
16.408
14.5997
5.92944
19.6117
47.1843
62.9896
54.7575
33.543
15.1266
5.24304
1.51672
0.431839
0.17499
0.160062
0.216834
0.457329
0.760304
1.04726
1.29106
1.46239
1.55651
1.57703
1.51707
1.39401
1.21864
1.00805
0.778872
0.543535
0.332729
0.16788
0.0618007
0.0137081
0.000926668
0.00401987
0.00250447
1.17542e-05
9.57024e-07
3.31215e-05
4.47308e-05
7.94369e-05
0.000126018
0.00015575
0.000150565
0.000143581
0.000122937
9.61768e-05
8.30808e-05
8.87743e-05
0.00010462
0.000118766
0.000120379
0.000114236
0.000104432
9.64361e-05
9.03266e-05
8.4701e-05
8.32737e-05
8.32695e-05
8.0904e-05
7.43005e-05
6.53567e-05
5.64514e-05
4.90536e-05
4.31909e-05
3.8126e-05
3.35435e-05
2.9356e-05
2.55175e-05
2.2022e-05
1.90033e-05
1.62339e-05
1.48178e-05
1.14441e-05
14.6599
20.0094
25.0678
26.9251
15.1016
14.0864
37.8765
50.8444
45.2693
30.4525
16.7724
8.16418
3.89787
2.11276
1.48779
1.32796
1.57856
1.95066
2.30497
2.60027
2.81591
2.95532
3.01742
2.99085
2.88787
2.71261
2.47959
2.19802
1.8646
1.49931
1.11909
0.749059
0.435613
0.205705
0.0705479
0.0141055
0.000440116
0.00341879
0.00209313
0.000264776
1.95703e-06
2.66968e-05
5.51164e-05
8.20115e-05
0.000120077
0.00013794
0.000121812
9.50135e-05
7.8946e-05
7.83377e-05
9.12843e-05
0.000103903
0.000109473
0.000105235
9.71782e-05
8.91494e-05
8.2113e-05
7.78523e-05
7.65088e-05
7.56124e-05
7.20069e-05
6.53868e-05
5.72237e-05
4.95072e-05
4.31512e-05
3.78755e-05
3.3381e-05
2.94457e-05
2.58713e-05
2.25922e-05
1.97161e-05
1.70481e-05
1.56651e-05
1.2176e-05
10.7983
16.9307
24.9907
33.6955
33.6322
21.3269
10.1635
26.5043
37.8144
36.323
27.8815
18.7797
11.9965
7.83034
5.57395
4.42596
4.08212
4.06915
4.13359
4.21026
4.2678
4.30501
4.31043
4.26594
4.17462
4.02979
3.84346
3.62011
3.34859
3.03277
2.66171
2.2335
1.76436
1.27532
0.824281
0.454415
0.201868
0.0660211
0.0124891
0.000370346
0.00273126
0.0015573
0.000115044
2.09345e-05
4.313e-08
2.90455e-05
7.24027e-05
9.44954e-05
9.27192e-05
8.10749e-05
7.87863e-05
8.3851e-05
9.26352e-05
9.70195e-05
9.55698e-05
8.959e-05
8.19893e-05
7.52868e-05
7.12601e-05
6.96028e-05
6.77448e-05
6.38574e-05
5.76978e-05
5.07074e-05
4.42362e-05
3.8616e-05
3.38962e-05
2.99512e-05
2.6502e-05
2.33884e-05
2.06343e-05
1.80408e-05
1.66718e-05
1.30198e-05
4.26057
8.45228
16.3461
26.9573
35.4618
35.4287
25.6082
11.271
14.5034
24.431
26.7747
23.7037
18.8576
14.3954
11.0597
8.79498
7.43592
6.61521
6.05809
5.63986
5.31431
5.06866
4.87724
4.71345
4.56882
4.42304
4.27964
4.13946
3.99302
3.83741
3.65204
3.4302
3.14029
2.7649
2.312
1.79777
1.27203
0.795934
0.421722
0.178487
0.0545709
0.00951084
0.000131467
5.81298e-05
0.000241808
1.41256e-05
1.55238e-05
5.78503e-07
2.76201e-05
5.21133e-05
6.37043e-05
7.16766e-05
8.27545e-05
8.89577e-05
8.98719e-05
8.71186e-05
8.20609e-05
7.55928e-05
6.95192e-05
6.55579e-05
6.31745e-05
6.07132e-05
5.6703e-05
5.13839e-05
4.5718e-05
4.02338e-05
3.53177e-05
3.11385e-05
2.75601e-05
2.44493e-05