/*--------------------------------*- C++ -*----------------------------------*\
| =========                 |                                                 |
| \\      /  F ield         | OpenFOAM: The Open Source CFD Toolbox           |
|  \\    /   O peration     | Version:  2312                                  |
|   \\  /    A nd           | Website:  www.openfoam.com                      |
|    \\/     M anipulation  |                                                 |
\*---------------------------------------------------------------------------*/
FoamFile
{
    version     2.0;
    format      ascii;
    arch        "LSB;label=32;scalar=64";
    class       volVectorField;
    location    "50";
    object      momentError;
}
// * * * * * * * * * * * * * * * * * * * * * * * * * * * * * * * * * * * * * //

dimensions      [0 1 -2 0 0 0 0];

internalField   nonuniform List<vector> 
11040
(
(61.8244 -129.962 -4.55848e-17)
(15.7953 -192.767 3.45337e-14)
(-36.8038 -89.5241 2.31366e-13)
(-39.8501 -37.1129 1.10145e-13)
(-30.2689 -5.8105 -2.55311e-14)
(-12.5884 13.7424 1.78109e-14)
(-3.7631 20.8271 -1.85919e-14)
(-3.94953 21.0613 -1.8416e-13)
(-4.38046 20.1747 -1.21502e-13)
(-3.05967 19.7496 1.26429e-13)
(-4.92374 18.3393 1.19256e-13)
(-10.6534 16.3308 1.19091e-13)
(-15.6453 14.2506 -3.76166e-14)
(-18.592 12.198 -6.08822e-14)
(-17.0737 10.745 -2.82943e-14)
(-11.9379 9.24265 4.36434e-15)
(-5.65816 7.03554 -3.24396e-15)
(-10.8653 4.82025 5.41042e-16)
(-20.9946 4.10701 2.72312e-17)
(-34.8482 5.12001 -6.08918e-16)
(-46.324 6.77917 -3.15287e-15)
(-55.5661 9.82795 4.07696e-15)
(-48.9268 11.7412 5.71758e-15)
(-36.0486 11.1577 9.27191e-15)
(-42.167 9.85014 5.81382e-15)
(-47.9753 3.60644 -1.1155e-14)
(-70.3925 2.85707 -3.2103e-15)
(-104.429 7.4998 -6.48342e-15)
(-108.592 11.4884 -5.23476e-16)
(-99.0759 12.1935 5.53544e-16)
(-84.3683 10.6218 7.98148e-15)
(-79.6806 8.62467 2.9746e-15)
(-53.4256 -6.41691 3.90309e-15)
(21.4387 -34.5407 7.4484e-15)
(66.4195 -35.2364 -7.45306e-17)
(-63.2539 28.586 3.40792e-15)
(-276.497 98.4979 1.82563e-15)
(-269.39 64.3717 -3.76192e-16)
(-17.2721 -37.6079 -1.97839e-19)
(127.458 -37.1664 1.26904e-18)
(218.59 -47.7662 -2.41955e-16)
(72.3282 -142.89 1.77075e-14)
(-0.368409 -165.162 3.1189e-14)
(-77.9329 -91.498 -1.05619e-13)
(-93.6387 -23.9804 -2.57672e-13)
(-102.118 8.51255 -2.25331e-14)
(-93.8435 18.2826 -2.13197e-14)
(-71.645 18.9281 -1.73017e-13)
(-48.4096 17.9098 -3.95609e-14)
(-27.8685 21.4811 6.03004e-14)
(-11.8618 28.946 -5.91899e-14)
(-1.30481 34.2845 -2.82485e-14)
(-0.85542 35.293 -1.17405e-14)
(-6.43101 32.7465 1.03754e-13)
(-14.9249 26.3801 3.80501e-14)
(-19.17 17.65 1.43481e-14)
(-18.2924 7.59516 -1.67242e-14)
(-15.9916 -0.77105 -8.89279e-15)
(-13.4961 -2.65236 -4.32696e-15)
(-19.1884 2.78803 1.93562e-15)
(-32.7842 11.4587 -4.67917e-16)
(-46.6636 16.4297 9.6328e-16)
(-58.7625 16.2144 -5.13456e-15)
(-55.9041 8.94836 -3.66102e-15)
(-53.9914 -0.866669 1.16532e-14)
(-53.8308 -4.96843 9.0777e-15)
(-50.8252 -4.78853 1.69612e-15)
(-78.9287 6.62054 -9.68312e-15)
(-116.11 19.8988 1.78476e-15)
(-140.671 24.3102 -1.59579e-15)
(-144.26 16.065 -4.05874e-15)
(-148.87 7.50877 1.1299e-15)
(-157.986 2.85739 -4.68375e-15)
(-117.452 -20.2764 -4.67322e-16)
(-3.03816 -54.2113 -1.34376e-15)
(46.0623 -36.1353 1.39442e-15)
(-172.931 91.8972 -1.10175e-16)
(-542.791 219.85 -1.25063e-15)
(-341.144 38.9977 6.66943e-16)
(190.382 -151.676 -1.20618e-17)
(242.41 -153.92 4.00802e-16)
(264.885 10.7164 -1.71441e-16)
(27.1845 -125.459 6.39846e-15)
(-18.0737 -125.798 -4.25947e-14)
(-82.335 -67.9288 -3.82116e-14)
(-98.7778 -17.0373 1.36191e-13)
(-93.094 10.2912 1.75288e-14)
(-86.9233 21.8454 -1.00476e-13)
(-76.8718 23.5956 4.73304e-14)
(-61.9665 23.6864 9.12627e-14)
(-46.2679 25.4896 -1.16587e-14)
(-33.2706 27.2024 -1.60397e-14)
(-27.1986 26.4087 1.71412e-14)
(-26.5523 23.4265 -3.92869e-14)
(-28.2063 20.1733 -7.11439e-14)
(-31.1211 16.2095 1.30759e-14)
(-29.8028 10.7591 4.77753e-15)
(-24.2458 2.75296 1.59933e-14)
(-16.3772 -5.01589 4.22842e-15)
(-14.4533 -6.75637 5.44424e-15)
(-20.6455 0.728755 9.54387e-15)
(-36.1669 12.6554 1.55592e-17)
(-53.0405 19.4694 8.2999e-17)
(-70.6342 16.963 5.32683e-15)
(-71.2757 3.07081 1.44123e-15)
(-65.72 -14.2227 -5.36774e-15)
(-72.1921 -16.8047 -9.28257e-15)
(-70.3491 -6.19509 -4.27252e-15)
(-95.0764 17.1356 6.42205e-15)
(-134.74 36.445 -1.97052e-15)
(-161.212 34.9061 2.00008e-15)
(-176.679 16.0389 -4.67155e-16)
(-188.858 -0.437284 -1.3243e-15)
(-191.27 -8.4712 3.51461e-15)
(-137.343 -31.7572 -3.30788e-15)
(-39.7505 -55.9928 1.82584e-15)
(-67.841 -3.56325 4.62663e-16)
(-354.711 154.314 -2.63136e-15)
(-544.421 209.943 1.41056e-16)
(-185.549 0.806307 1.14985e-15)
(188.796 -185.799 6.1629e-16)
(259.183 -219.115 6.21307e-16)
(242.337 22.246 2.44908e-16)
(11.0109 -110.886 -1.45187e-15)
(-18.4541 -104.989 1.92865e-14)
(-51.4088 -69.021 1.34372e-14)
(-67.0679 -41.6901 -6.13906e-14)
(-75.675 -20.283 -2.28941e-14)
(-77.7322 0.114382 1.01785e-13)
(-71.7411 19.4856 5.28179e-14)
(-59.7021 30.7283 -2.31832e-14)
(-47.9721 32.1779 1.01838e-14)
(-40.6909 26.1993 -2.1872e-14)
(-38.8238 15.8037 -4.40239e-14)
(-41.5863 5.43167 2.19628e-14)
(-47.5956 -0.735148 2.51531e-14)
(-53.7581 -1.9909 7.85195e-15)
(-56.472 -1.60614 2.65936e-14)
(-53.2977 -3.69269 -6.61033e-15)
(-45.0507 -8.75672 -1.64187e-14)
(-37.9854 -11.7517 -9.00612e-15)
(-37.8587 -6.85728 9.58208e-16)
(-47.737 5.31384 -3.92235e-15)
(-62.545 17.4801 3.62555e-16)
(-81.8286 21.6751 -2.90633e-15)
(-85.1382 10.2357 -3.28887e-15)
(-78.9772 -9.64209 -4.39425e-15)
(-75.0361 -20.5444 -5.29973e-15)
(-79.4948 -8.84866 -5.10563e-15)
(-105.073 19.5097 -8.58949e-15)
(-149.25 45.3632 -2.47604e-16)
(-184.441 46.4681 -1.1557e-15)
(-208.46 24.4621 5.88847e-15)
(-217.768 0.801695 3.25689e-15)
(-205.226 -15.8752 2.15509e-15)
(-157.264 -35.3811 6.27588e-15)
(-119.254 -31.8213 -1.78116e-17)
(-208.442 45.847 -8.37512e-16)
(-427.15 166.79 2.85633e-16)
(-451.139 158.263 2.84631e-17)
(-137.367 -28.6976 8.76359e-16)
(156.689 -204.463 6.59105e-19)
(212.42 -253.232 3.52828e-16)
(175.309 32.3115 3.60862e-16)
(2.09841 -93.7173 3.33923e-15)
(-17.7104 -88.095 -6.86987e-15)
(-36.9347 -67.6135 1.01245e-14)
(-48.3256 -48.3309 8.66266e-14)
(-58.3408 -28.3483 1.31737e-14)
(-67.0385 -6.74871 -6.324e-14)
(-68.7121 13.3389 4.32409e-14)
(-61.0899 24.6402 -1.25111e-14)
(-48.8766 23.0855 5.15399e-15)
(-38.5813 11.7928 5.68987e-14)
(-33.0845 -2.98422 6.78886e-14)
(-32.314 -14.6967 1.64896e-14)
(-35.6829 -19.169 3.61633e-16)
(-41.2606 -15.9413 -1.38712e-14)
(-46.0224 -8.93056 -1.84373e-14)
(-46.172 -3.89507 -2.02887e-15)
(-41.0429 -4.60795 -1.27349e-14)
(-34.4642 -8.6727 9.65467e-15)
(-33.4807 -8.9805 -1.55994e-15)
(-41.7846 -0.291783 -5.00203e-16)
(-56.1812 15.631 2.10609e-16)
(-75.1496 30.7999 3.68123e-15)
(-80.9809 29.3073 4.43499e-15)
(-75.6149 11.005 -6.86478e-15)
(-74.682 -7.15319 -7.78167e-16)
(-78.1804 -10.9604 1.18174e-14)
(-102.211 9.02323 4.83396e-15)
(-153.785 41.4043 3.72521e-15)
(-204.895 58.7079 2.45829e-15)
(-242.575 47.9283 -4.60176e-15)
(-250.071 19.4574 -4.01206e-15)
(-224.938 -14.1187 9.69824e-16)
(-194.975 -35.0224 -2.62649e-15)
(-218.043 -2.12468 3.64397e-16)
(-323.239 93.4136 3.28908e-17)
(-430.98 164.726 7.54214e-16)
(-364.185 101.801 6.36464e-16)
(-115.302 -64.8167 -1.0485e-15)
(115.73 -214.714 -6.97785e-16)
(140.723 -263.919 7.36501e-17)
(92.194 32.2203 6.43269e-17)
(-2.34471 -76.7565 7.15241e-16)
(-16.3099 -73.1105 8.14352e-16)
(-29.2996 -59.7066 -3.33491e-15)
(-38.1307 -46.641 -3.71192e-14)
(-44.3543 -33.3851 1.53775e-14)
(-49.9641 -22.2469 3.03629e-14)
(-54.6625 -13.3727 -3.70517e-14)
(-53.7039 -8.16461 1.107e-14)
(-47.2263 -8.85212 -3.05658e-14)
(-39.3175 -14.7574 -7.05006e-15)
(-33.4241 -21.9103 -4.47156e-14)
(-30.3699 -25.9691 -1.64991e-14)
(-30.5799 -24.9561 1.18884e-14)
(-33.8182 -18.5243 -7.61814e-15)
(-38.2302 -8.49623 -1.97396e-15)
(-40.1042 1.20968 3.15596e-14)
(-36.6171 5.73743 5.76551e-15)
(-29.4326 3.88469 1.20294e-15)
(-24.9615 0.582353 -5.83695e-15)
(-29.166 3.5075 1.00969e-15)
(-41.08 16.8124 1.33151e-15)
(-57.6943 37.1241 5.29229e-16)
(-63.1566 45.2642 -1.37744e-15)
(-56.7012 33.9592 5.10127e-16)
(-42.5888 8.65658 -4.34765e-15)
(-35.8445 -10.8352 -4.44123e-15)
(-51.7754 -6.95225 1.18884e-15)
(-95.6289 24.4351 -1.96889e-15)
(-153.377 62.7321 -9.70625e-16)
(-208.193 78.1958 -4.63291e-16)
(-237.507 56.8233 1.93165e-15)
(-237.058 6.99527 -1.70058e-15)
(-251.547 -25.7838 4.52564e-16)
(-326.618 19.5544 -1.18264e-15)
(-416.394 121.016 -1.36079e-15)
(-419.627 153.272 8.78487e-16)
(-299.414 51.7004 -6.57474e-16)
(-109.475 -96.4993 -1.1302e-15)
(70.8789 -218.616 2.50816e-16)
(62.5496 -257.957 -4.65057e-16)
(-27.0929 18.6561 -4.95369e-16)
(-3.96967 -61.3871 -3.63247e-16)
(-14.3725 -59.8589 8.88738e-16)
(-23.1722 -52.0048 -1.0858e-15)
(-29.4939 -45.213 -8.20953e-16)
(-33.8648 -37.9378 -1.73524e-15)
(-37.0067 -32.5667 1.19267e-14)
(-40.6362 -29.2949 3.84401e-17)
(-43.9337 -25.7742 -6.88392e-15)
(-43.5653 -21.6571 5.02623e-14)
(-40.2067 -18.0642 -4.0993e-15)
(-35.9549 -15.2667 -8.57683e-15)
(-32.1335 -12.3539 6.97556e-15)
(-30.0919 -8.58069 -8.81564e-15)
(-30.6911 -2.90839 1.9862e-14)
(-33.6295 5.48874 -1.40464e-14)
(-36.3991 15.4559 -1.88363e-14)
(-35.4649 22.8347 -1.29739e-15)
(-29.9255 23.5428 -5.12461e-15)
(-23.9049 18.3547 9.84232e-16)
(-24.0003 13.9262 -6.76667e-15)
(-32.7404 18.4255 3.29899e-15)
(-49.0155 34.7704 -3.88527e-17)
(-58.4655 47.4246 -2.59707e-15)
(-55.5855 44.9421 -1.60257e-15)
(-40.4068 24.7494 -1.66444e-15)
(-23.1723 -1.19776 -5.99738e-16)
(-19.6501 -12.7555 1.73249e-15)
(-38.1771 6.70063 -2.15644e-15)
(-71.4563 51.6093 -2.00083e-15)
(-104.437 91.4363 1.65388e-15)
(-125.91 92.375 2.11843e-15)
(-142.57 47.4505 2.20584e-15)
(-196.696 6.53261 8.83756e-16)
(-316.486 36.9944 -2.67554e-15)
(-423.555 112.738 -1.99967e-15)
(-403.092 112.634 -2.41844e-16)
(-279.099 1.24153 1.00185e-15)
(-136.602 -120.873 1.16687e-15)
(7.74161 -213.827 8.9138e-16)
(-11.7728 -241.992 1.73524e-16)
(-173.229 5.18117 -2.42152e-16)
(-4.32579 -48.11 -5.27147e-16)
(-12.4073 -48.0264 -3.06622e-17)
(-19.1034 -43.4935 1.31703e-15)
(-24.4386 -39.764 2.58929e-15)
(-29.0551 -35.0054 1.50576e-14)
(-32.6422 -29.9882 1.03746e-14)
(-36.1564 -24.9997 -2.6267e-14)
(-39.8671 -19.8471 -3.8679e-14)
(-42.2876 -13.9272 -2.39201e-14)
(-41.6599 -7.40089 2.41064e-14)
(-38.8779 -0.936063 4.46815e-15)
(-34.9217 4.54869 -4.49979e-14)
(-31.3331 9.16649 2.79715e-14)
(-29.2976 13.5962 2.05459e-14)
(-29.6682 19.031 -3.48533e-14)
(-31.7234 25.7579 7.059e-15)
(-32.7809 31.4249 2.8383e-14)
(-30.3524 31.9847 1.63574e-15)
(-25.4909 25.685 -4.97475e-15)
(-23.1733 16.3642 -7.0698e-15)
(-27.8515 12.9046 1.414e-16)
(-41.6851 22.2221 8.67334e-15)
(-54.0675 36.2009 -5.08307e-15)
(-58.0349 43.5612 -1.08068e-15)
(-49.229 36.0986 -7.55098e-16)
(-32.5236 16.2357 -3.73797e-16)
(-20.8053 -1.81166 7.9535e-16)
(-25.8058 1.38064 -2.02526e-15)
(-45.7489 33.6432 1.21332e-15)
(-64.5053 77.932 2.6985e-15)
(-67.1344 99.4798 -1.61529e-15)
(-57.3434 78.1598 -3.46034e-15)
(-60.1112 46.9332 -2.12585e-16)
(-105.509 59.4549 1.46705e-15)
(-187.433 93.2147 8.66347e-16)
(-242.939 58.0978 4.06137e-17)
(-244.344 -50.5772 4.4943e-16)
(-206.878 -136.198 2.46139e-16)
(-123.801 -187.137 -2.6408e-16)
(-145.659 -200.339 -4.35727e-16)
(-365.591 12.1215 1.38177e-16)
(-4.0227 -37.043 6.96152e-16)
(-10.3353 -37.6797 -4.86176e-16)
(-15.5979 -35.067 5.3893e-16)
(-20.1695 -32.9663 -2.70296e-17)
(-24.6135 -29.7121 -1.90324e-15)
(-28.5166 -25.4956 2.69939e-17)
(-31.9183 -20.456 1.14935e-14)
(-34.9763 -14.1718 1.34058e-14)
(-37.839 -6.59965 -1.04258e-14)
(-39.2635 1.26951 1.50239e-14)
(-38.4153 8.33796 4.16495e-14)
(-35.6495 14.1211 -8.62442e-15)
(-32.1533 18.632 -2.9199e-14)
(-28.9871 21.6094 9.84615e-16)
(-27.4243 23.4737 5.71122e-15)
(-28.1336 24.8948 -7.44451e-15)
(-29.9842 25.7495 -1.28923e-14)
(-30.382 24.4622 -1.95185e-15)
(-27.9389 19.2578 1.23628e-14)
(-24.866 11.0854 -4.68803e-15)
(-25.4802 5.70786 6.5133e-16)
(-34.3645 10.2054 -3.73417e-17)
(-45.6285 23.1798 3.79336e-16)
(-53.4972 36.5832 1.31688e-16)
(-51.4945 41.0414 -2.30002e-15)
(-39.4041 32.0932 -2.2234e-15)
(-25.4696 15.5078 3.07715e-15)
(-22.2055 5.94234 -6.48635e-16)
(-36.2365 16.9684 -1.26135e-15)
(-58.9935 47.5324 -1.76422e-15)
(-72.099 75.7922 3.19984e-16)
(-66.3327 76.8419 1.11966e-15)
(-39.1583 62.5661 -5.08181e-16)
(10.7281 70.8363 -1.96442e-16)
(48.5499 85.2252 -2.1131e-17)
(14.2948 37.8597 1.02451e-15)
(-99.5881 -61.9383 -3.49372e-17)
(-220.804 -116.986 -6.94999e-16)
(-276.615 -108.917 -1.22246e-15)
(-354.011 -84.8094 2.10598e-16)
(-572.443 48.6022 9.40322e-17)
(-3.37843 -28.1423 2.03246e-16)
(-8.29492 -28.9955 2.29984e-16)
(-12.3139 -27.4679 -2.98531e-16)
(-15.9892 -26.29 -2.97421e-15)
(-19.7519 -24.182 -2.50012e-15)
(-23.3013 -21.1056 7.19038e-16)
(-26.424 -17.1671 7.4516e-15)
(-29.0441 -12.382 -1.64134e-14)
(-30.9532 -6.70407 1.9578e-17)
(-32.4602 -0.258212 2.45405e-14)
(-33.1632 5.74887 -1.38092e-14)
(-32.2457 10.3286 2.60163e-14)
(-30.3166 13.3396 -7.83209e-16)
(-28.0321 14.5585 -1.14456e-14)
(-26.3713 14.0351 6.94297e-15)
(-26.346 12.4527 -2.00772e-14)
(-27.9417 11.0168 9.98886e-15)
(-29.4975 10.1095 3.76329e-15)
(-28.9019 8.93002 -8.88496e-16)
(-26.148 6.46526 1.09922e-15)
(-24.0741 4.17825 -3.90092e-15)
(-27.9195 7.08715 -1.54518e-15)
(-35.7797 16.3756 5.69879e-15)
(-44.5976 28.5847 -1.57903e-15)
(-48.21 37.307 -2.59854e-16)
(-42.8201 36.2573 9.09112e-16)
(-31.158 24.9044 -4.40873e-16)
(-22.3343 10.9974 -8.17095e-16)
(-26.5994 6.57215 6.50641e-16)
(-45.4609 19.7391 -8.23145e-16)
(-66.6701 44.5757 1.01971e-15)
(-76.7612 60.7375 -6.31427e-17)
(-67.58 60.8261 1.63045e-15)
(-21.9982 64.7313 1.51413e-16)
(58.3472 74.0867 4.00016e-16)
(102.098 44.8453 1.28301e-16)
(31.5612 -24.7844 -8.4661e-17)
(-120.796 -51.1641 8.15062e-16)
(-257.023 7.2149 3.34175e-16)
(-355.862 71.5543 -9.0213e-17)
(-535.834 130.919 -1.80566e-17)
(-2.72064 -21.1464 -6.85054e-16)
(-6.50033 -21.9943 4.01184e-16)
(-9.48859 -21.15 4.19651e-16)
(-12.2446 -20.5888 -3.2715e-15)
(-15.1349 -19.4289 3.12088e-15)
(-17.9461 -17.6295 3.7707e-15)
(-20.5015 -15.225 -7.83618e-15)
(-22.6696 -12.2788 4.67227e-15)
(-24.3831 -8.9312 4.91175e-16)
(-25.5728 -5.4927 -2.67145e-14)
(-26.4469 -2.08476 -1.5016e-14)
(-26.89 0.879077 -5.01919e-15)
(-26.6673 2.90778 4.00741e-15)
(-25.9448 3.77742 -1.15518e-14)
(-25.2176 3.46185 -5.87332e-15)
(-25.0742 2.62278 2.43419e-14)
(-25.8998 2.2733 -8.89799e-15)
(-27.0966 3.29507 2.0863e-15)
(-27.1345 5.53419 2.00591e-14)
(-25.2588 7.37213 -8.80212e-15)
(-22.6623 7.68726 -4.08944e-16)
(-23.6781 9.24208 1.32923e-15)
(-28.34 12.9199 -2.19484e-15)
(-36.2806 18.9667 4.44079e-15)
(-43.2346 25.2542 -2.19684e-15)
(-44.1849 27.5076 1.33337e-15)
(-37.666 22.908 3.27479e-15)
(-27.9363 13.317 -8.73796e-16)
(-23.5806 5.52273 -1.40511e-16)
(-31.2092 8.32729 -2.86454e-16)
(-47.4298 25.5343 -1.18322e-15)
(-61.0078 48.3509 -7.08292e-16)
(-63.2781 62.5671 -9.77248e-16)
(-45.0565 67.1037 4.59634e-16)
(1.97702 68.4676 1.03362e-15)
(52.2335 53.2834 -9.76263e-16)
(42.6739 15.4471 -5.86349e-16)
(-42.4195 1.98168 -5.33923e-16)
(-138.654 69.4105 -3.65782e-17)
(-169.34 178.774 -2.73698e-16)
(-259.482 241.973 5.79459e-17)
(-2.18911 -15.7213 -4.72934e-18)
(-5.07216 -16.4924 -1.20243e-16)
(-7.29248 -16.065 9.36487e-18)
(-9.34488 -15.8963 -6.24565e-17)
(-11.5143 -15.3735 -1.1171e-17)
(-13.6847 -14.4826 -5.77362e-16)
(-15.7323 -13.2373 1.69693e-15)
(-17.5505 -11.6624 2.25148e-15)
(-19.1019 -9.84346 1.98691e-14)
(-20.4284 -7.90898 4.25477e-15)
(-21.4666 -6.03087 -3.95009e-14)
(-22.1829 -4.36978 2.46869e-14)
(-22.9265 -2.82255 2.87339e-14)
(-23.3028 -1.57768 8.47997e-15)
(-23.3143 -0.627443 -1.12207e-14)
(-23.218 0.26048 -6.13018e-15)
(-23.3382 1.45653 4.00455e-15)
(-23.681 3.50022 -1.54884e-14)
(-23.7618 6.20613 7.03298e-15)
(-22.9576 8.53617 6.93896e-16)
(-21.4752 8.96592 -8.60749e-15)
(-22.3087 8.83136 4.88446e-16)
(-25.197 8.50367 4.71125e-15)
(-31.1984 9.692 2.63072e-15)
(-38.2128 13.1884 -7.48385e-15)
(-42.0965 17.5365 1.08928e-15)
(-39.7664 20.0423 3.22293e-15)
(-31.9292 19.3329 -2.97425e-15)
(-23.4587 17.2291 -1.15637e-15)
(-21.0581 18.7184 3.83467e-15)
(-27.2899 29.1568 -1.45435e-15)
(-36.9538 48.5625 -4.06448e-16)
(-41.6555 68.1969 6.971e-16)
(-35.6247 78.0371 -2.19252e-16)
(-16.4384 77.5451 -4.6653e-16)
(9.85228 67.8688 -1.84477e-16)
(16.3807 48.293 -1.1815e-17)
(-19.476 32.312 3.55438e-16)
(-80.9827 61.13 -7.14586e-17)
(-79.6164 159.122 2.59119e-16)
(-60.5622 264.549 -7.14371e-17)
(-1.7692 -11.5299 1.90072e-16)
(-3.98281 -12.1773 -3.31248e-16)
(-5.65941 -11.9937 -3.28504e-17)
(-7.22907 -12.0082 4.7086e-16)
(-8.90509 -11.8013 -2.86341e-16)
(-10.6178 -11.3638 4.4507e-16)
(-12.2846 -10.6946 -9.55074e-15)
(-13.8313 -9.78685 -8.5544e-15)
(-15.2265 -8.68068 2.90707e-15)
(-16.5148 -7.44234 1.71088e-15)
(-17.693 -6.08936 3.48609e-15)
(-18.554 -4.68114 -4.41472e-15)
(-19.369 -3.32981 3.84942e-16)
(-20.2028 -1.87395 -1.16954e-14)
(-20.6407 -0.261377 -7.1413e-15)
(-20.7131 1.35046 6.95784e-15)
(-20.6186 2.9564 -8.4844e-15)
(-20.6478 4.51336 1.74358e-14)
(-20.8492 5.96175 -1.26347e-15)
(-20.9351 7.06195 -7.46967e-16)
(-20.8017 7.00958 4.33634e-16)
(-22.478 6.65144 6.27441e-16)
(-24.4925 6.16315 -3.19715e-16)
(-27.9928 7.13026 -1.27976e-15)
(-32.3175 10.9416 1.44467e-15)
(-36.4412 18.75 6.59125e-15)
(-34.7038 26.2736 3.98693e-16)
(-28.2335 32.4507 -1.96259e-15)
(-19.5589 36.8572 4.32889e-15)
(-12.4678 40.5591 -1.39748e-15)
(-11.1041 46.6927 1.18856e-15)
(-15.5539 57.7551 5.41958e-16)
(-20.9248 72.0735 -2.82365e-15)
(-21.5817 82.3438 9.73626e-16)
(-15.8517 83.7269 -2.35168e-16)
(-5.64685 77.6826 -2.48874e-16)
(1.0935 69.5191 1.94247e-17)
(-7.36977 60.5552 -2.0711e-16)
(-40.525 59.306 3.44647e-17)
(-61.3417 91.6431 -1.18309e-17)
(-33.8663 169.767 6.05214e-17)
(-1.44043 -8.28228 3.75971e-16)
(-3.13265 -8.78341 -1.06153e-17)
(-4.414 -8.71973 -4.54959e-16)
(-5.63879 -8.79323 2.8396e-17)
(-6.96144 -8.70993 1.19497e-15)
(-8.3328 -8.46211 8.05127e-16)
(-9.69369 -8.04801 3.86533e-15)
(-10.9925 -7.45272 4.60532e-15)
(-12.207 -6.69105 -3.47479e-15)
(-13.3641 -5.7955 -1.57858e-14)
(-14.4645 -4.75973 1.18827e-14)
(-15.3615 -3.57569 2.54794e-15)
(-16.101 -2.28088 -2.80048e-14)
(-16.7904 -0.922532 1.3105e-14)
(-17.4843 0.500209 2.19969e-14)
(-17.8872 1.8987 -2.16779e-15)
(-18.1111 3.11971 2.08376e-15)
(-18.3323 4.0902 -2.35875e-15)
(-18.7051 4.91095 9.15972e-16)
(-19.1484 5.70461 1.18792e-14)
(-19.4408 6.51199 -4.8599e-15)
(-21.1941 8.14111 -1.0668e-14)
(-22.2151 10.1573 -5.27435e-15)
(-23.1886 13.6513 5.31439e-15)
(-24.2942 19.3286 6.20205e-15)
(-24.592 27.202 -1.10335e-15)
(-23.0365 36.2673 -9.97045e-17)
(-18.7988 44.7955 1.87066e-16)
(-12.3376 51.2184 6.70742e-17)
(-5.693 55.2349 -2.6816e-16)
(-1.91653 57.9745 -7.50175e-16)
(-3.04242 61.3955 6.79607e-16)
(-7.91724 66.8079 1.03651e-15)
(-12.6559 72.2777 -6.79607e-16)
(-14.1928 74.5386 -2.84308e-16)
(-12.1141 72.013 -9.58319e-17)
(-7.85812 69.0859 1.05916e-15)
(-4.66505 68.6583 -5.46667e-16)
(-9.36409 70.3627 9.01392e-18)
(-25.8012 72.9354 2.76424e-16)
(-27.2354 97.1758 -3.9351e-17)
(-1.17375 -5.81643 -3.10457e-16)
(-2.45171 -6.15513 2.46297e-16)
(-3.42106 -6.13176 1.0455e-16)
(-4.36978 -6.19904 -6.08098e-16)
(-5.40462 -6.14802 9.79816e-17)
(-6.48621 -5.96999 -7.70643e-16)
(-7.56784 -5.66137 2.07342e-15)
(-8.6135 -5.20864 2.86142e-15)
(-9.60943 -4.62133 2.31662e-15)
(-10.5758 -3.91973 3.54369e-15)
(-11.5198 -3.10704 -1.49469e-14)
(-12.3441 -2.18901 1.35251e-14)
(-13.0974 -1.1864 1.65364e-14)
(-13.7531 -0.128454 -1.20998e-14)
(-14.4158 0.974748 -6.32227e-15)
(-15.1273 2.09453 -1.09046e-14)
(-15.6562 3.23987 7.60998e-16)
(-16.0238 4.45766 2.03112e-16)
(-16.2921 5.84639 2.71332e-15)
(-16.4342 7.54191 -2.04266e-15)
(-16.2279 9.79993 -8.25082e-16)
(-16.8693 13.7817 3.22766e-15)
(-16.6422 17.7824 1.15964e-15)
(-15.9292 22.4748 -6.11107e-15)
(-14.9617 27.8567 1.40979e-16)
(-13.9375 33.7612 3.69941e-15)
(-12.5274 39.7291 -1.07677e-15)
(-10.2278 44.9313 -5.93116e-15)
(-7.09436 48.4754 3.86724e-15)
(-3.62172 49.9162 -1.5034e-15)
(-1.25231 49.5946 2.18916e-15)
(-1.53754 48.654 -8.80794e-16)
(-4.88519 48.5568 -1.54621e-15)
(-9.62795 49.8779 1.16177e-15)
(-13.0772 52.1523 1.44272e-15)
(-13.4038 53.7615 -2.72514e-16)
(-10.124 55.0604 -5.49264e-16)
(-4.01898 57.7052 3.07891e-16)
(3.92233 64.7876 -2.5613e-16)
(7.11642 71.3404 -2.37713e-17)
(6.9182 80.0381 -9.23705e-17)
(-0.932475 -3.98535 -2.1816e-16)
(-1.88975 -4.197 5.49292e-17)
(-2.61134 -4.17779 2.18055e-16)
(-3.33078 -4.21531 5.9526e-16)
(-4.11944 -4.16345 4.58797e-17)
(-4.94369 -4.01489 6.07789e-16)
(-5.76847 -3.7676 4.51567e-18)
(-6.56914 -3.41347 -3.8013e-15)
(-7.34147 -2.96123 -1.28109e-15)
(-8.10446 -2.42503 2.07336e-15)
(-8.8728 -1.80782 -8.4063e-15)
(-9.58363 -1.10701 -5.77692e-15)
(-10.2676 -0.314371 1.28262e-14)
(-10.9006 0.578412 -3.19503e-15)
(-11.4504 1.59878 1.48292e-14)
(-11.9583 2.80333 5.76465e-15)
(-12.434 4.20647 -1.02097e-14)
(-12.6802 5.80434 5.71251e-15)
(-12.6736 7.63021 -1.02031e-14)
(-12.44 9.6488 1.62265e-15)
(-11.7966 11.9296 5.35051e-17)
(-11.584 15.832 1.42149e-15)
(-10.87 19.2101 -5.01116e-15)
(-9.84094 22.4173 -2.30867e-15)
(-8.83571 25.1894 8.08244e-15)
(-8.07568 27.5234 -6.86563e-16)
(-8.44786 29.8076 -2.2345e-15)
(-7.76095 30.4689 -1.47986e-15)
(-7.038 30.3626 4.91869e-15)
(-6.32208 29.8323 6.09665e-16)
(-5.63605 28.6752 -2.75251e-15)
(-5.58372 27.4905 3.01368e-16)
(-6.54319 27.1452 2.29401e-16)
(-8.13223 28.333 -2.57236e-16)
(-9.05941 31.4123 -7.65513e-16)
(-7.76666 35.8977 4.82482e-16)
(-3.30298 40.8613 5.64497e-16)
(3.99659 45.3874 -1.6433e-16)
(14.0648 51.6583 1.41274e-16)
(24.9798 58.724 1.31138e-16)
(33.8755 66.6206 -1.42085e-16)
(-0.721772 -2.61157 2.03948e-17)
(-1.42084 -2.74021 -9.80482e-17)
(-1.94673 -2.72956 -9.32993e-17)
(-2.4806 -2.74677 -5.9112e-17)
(-3.06653 -2.69355 1.77795e-15)
(-3.67389 -2.56707 -8.26673e-16)
(-4.27672 -2.36619 -5.60883e-16)
(-4.85743 -2.08634 3.99541e-15)
(-5.41429 -1.73301 8.2779e-16)
(-5.9611 -1.31246 -6.39794e-15)
(-6.50771 -0.821603 -1.87084e-15)
(-7.01218 -0.252049 1.03349e-14)
(-7.48797 0.408046 -7.21808e-15)
(-7.9162 1.17008 -2.53391e-15)
(-8.27052 2.04219 9.15578e-15)
(-8.52107 3.01195 -2.85408e-15)
(-8.68115 4.12097 7.48381e-15)
(-8.77509 5.33456 -3.86997e-15)
(-8.71619 6.59026 -1.78829e-14)
(-8.49949 7.79092 2.00436e-14)
(-8.12657 8.76122 1.30662e-15)
(-8.14417 10.56 -1.13912e-14)
(-7.96432 11.9753 2.09274e-15)
(-7.83857 12.9672 -1.17618e-16)
(-7.84244 13.51 3.98092e-15)
(-8.09747 13.7097 9.87171e-16)
(-8.49959 13.6889 -1.47134e-14)
(-8.98612 13.6832 -3.98669e-15)
(-9.28724 13.7648 5.24918e-15)
(-9.09049 14.1075 3.36923e-16)
(-8.23978 14.7886 6.89841e-16)
(-6.83785 15.9912 -1.87267e-15)
(-5.06516 17.9718 3.14125e-16)
(-3.03495 20.8964 -2.2059e-17)
(-0.500898 24.9358 2.43396e-20)
(3.10424 29.8626 8.16201e-17)
(8.36543 35.0884 9.01608e-17)
(15.0894 39.3565 4.32924e-19)
(23.5012 43.4457 -4.13149e-17)
(32.2981 46.3763 -1.15733e-16)
(40.7982 49.796 7.74506e-17)
(-0.601394 -1.82528 1.53859e-16)
(-1.12995 -1.87223 -1.25454e-16)
(-1.52426 -1.84803 3.53658e-16)
(-1.92742 -1.83436 -7.35959e-16)
(-2.3651 -1.76644 5.10468e-16)
(-2.81101 -1.64459 -2.3725e-15)
(-3.24592 -1.47011 -5.22083e-15)
(-3.65874 -1.24396 4.56546e-15)
(-4.04891 -0.974345 9.67092e-15)
(-4.42831 -0.669823 -3.98141e-15)
(-4.80403 -0.333364 -5.26349e-15)
(-5.15215 0.0356186 6.86141e-16)
(-5.4828 0.437952 2.3695e-15)
(-5.7854 0.874962 -9.80065e-16)
(-6.05199 1.34027 -1.16137e-16)
(-6.27399 1.82503 -5.51062e-16)
(-6.43616 2.3048 8.16637e-15)
(-6.53847 2.77526 -1.77097e-15)
(-6.60136 3.25445 -1.27177e-14)
(-6.59631 3.73615 9.03935e-15)
(-6.53233 4.04691 4.466e-15)
(-6.96792 4.68105 3.11675e-15)
(-7.32724 5.28615 -8.20665e-15)
(-7.65834 5.89296 8.32016e-16)
(-7.96152 6.55244 1.50696e-16)
(-8.1227 7.38049 -3.42187e-17)
(-8.11499 8.51133 -7.08877e-17)
(-7.88782 10.0112 -1.64667e-16)
(-7.14471 11.9448 1.66424e-17)
(-5.86419 14.2796 1.04626e-16)
(-3.90563 16.9648 -2.00398e-16)
(-1.31201 19.8942 8.99544e-16)
(1.78601 23.002 4.92013e-16)
(5.15515 26.1165 -1.46531e-15)
(8.74974 29.3772 3.16943e-16)
(12.5834 32.5445 -3.72017e-16)
(16.8568 35.3995 -2.12345e-16)
(21.3568 37.1282 5.36838e-16)
(26.7911 38.5236 -1.00413e-16)
(32.0548 38.3885 -3.66749e-18)
(37.0421 37.9302 -6.33977e-18)
(-0.495734 -1.3021 -1.68972e-17)
(-0.905368 -1.2985 6.56675e-17)
(-1.20789 -1.26429 2.59308e-16)
(-1.5188 -1.23027 -1.22096e-15)
(-1.84952 -1.15429 -1.61296e-17)
(-2.18303 -1.03663 -1.37913e-15)
(-2.50443 -0.880814 1.2777e-15)
(-2.81027 -0.688578 -4.16582e-16)
(-3.10178 -0.469346 -3.96016e-15)
(-3.39095 -0.230309 1.98294e-15)
(-3.68469 0.0241334 9.76642e-15)
(-3.96856 0.294508 2.87917e-16)
(-4.25096 0.583116 -8.08039e-15)
(-4.5261 0.894812 1.71504e-15)
(-4.7857 1.23261 -5.68312e-15)
(-5.01902 1.60153 -1.21089e-14)
(-5.21827 2.0044 5.99044e-15)
(-5.37205 2.44292 9.16627e-15)
(-5.48059 2.91556 3.73409e-15)
(-5.53341 3.43297 -1.56351e-15)
(-5.53766 4.00124 -8.22617e-15)
(-5.88214 5.009 7.0306e-15)
(-6.03311 6.07604 -1.42027e-15)
(-6.06208 7.4029 1.32642e-16)
(-5.85547 9.00689 3.09841e-16)
(-5.34504 10.906 -2.14713e-15)
(-4.51043 13.0042 -1.63269e-15)
(-3.51188 15.6555 5.30143e-15)
(-1.97057 18.0765 -8.76064e-16)
(-0.0733468 20.4904 -4.01296e-15)
(2.13536 22.9074 3.65924e-15)
(4.64729 25.1142 -1.98986e-15)
(7.33157 27.028 -5.37498e-18)
(10.0202 28.4426 2.2939e-15)
(12.7002 29.563 -2.72367e-15)
(15.2922 30.2599 1.54022e-15)
(17.8832 30.5276 8.75145e-16)
(20.2008 29.866 -1.1812e-15)
(23.0086 29.0218 4.88552e-16)
(25.7312 27.2866 -1.32258e-16)
(28.034 25.1642 1.63542e-16)
(-0.409918 -0.923853 -3.25276e-17)
(-0.727293 -0.890808 1.69695e-16)
(-0.960137 -0.849333 4.35361e-17)
(-1.19901 -0.804607 -4.75988e-16)
(-1.44807 -0.725709 1.71116e-16)
(-1.69382 -0.613768 -4.19899e-16)
(-1.92822 -0.470314 -2.37285e-16)
(-2.14927 -0.296587 2.26907e-15)
(-2.3615 -0.0969142 -1.02298e-15)
(-2.57267 0.124412 -4.02265e-15)
(-2.78965 0.368324 2.83334e-15)
(-3.0007 0.635775 4.92101e-15)
(-3.21043 0.935299 -4.35248e-15)
(-3.41141 1.2734 6.83259e-15)
(-3.59628 1.65717 2.58171e-15)
(-3.75354 2.09345 -9.9061e-15)
(-3.87074 2.5867 -1.06906e-14)
(-3.9361 3.1422 8.7765e-15)
(-3.93877 3.76549 -6.70495e-16)
(-3.87591 4.45795 6.45183e-16)
(-3.69499 5.24955 -6.13065e-16)
(-3.6682 6.61923 1.0685e-16)
(-3.47451 7.91025 -9.22802e-17)
(-3.07009 9.37189 2.07828e-16)
(-2.46448 10.9483 5.78919e-16)
(-1.67122 12.5788 3.05694e-16)
(-0.685845 14.2008 -2.22096e-16)
(0.496588 15.7168 1.04087e-15)
(1.75239 17.1042 5.70095e-16)
(3.15924 18.2861 -2.32716e-15)
(4.69602 19.1985 -7.0804e-17)
(6.30618 19.8 1.53719e-15)
(7.93332 20.0479 -5.08835e-16)
(9.47104 19.8753 -2.58495e-15)
(10.9431 19.3977 2.08278e-15)
(12.306 18.6502 2.57874e-16)
(13.6311 17.6558 2.88756e-17)
(14.6996 16.2106 -8.689e-16)
(16.0098 14.6432 3.65491e-16)
(17.4403 12.8268 -1.04101e-16)
(18.523 10.7773 1.58458e-16)
(-0.338033 -0.64805 3.37292e-17)
(-0.58409 -0.602777 -3.89677e-17)
(-0.76463 -0.557383 -3.34881e-16)
(-0.946775 -0.507128 7.56817e-16)
(-1.13363 -0.43004 8.12388e-19)
(-1.3109 -0.328581 -4.82662e-16)
(-1.47658 -0.202769 -4.91209e-16)
(-1.6286 -0.0538593 1.07195e-15)
(-1.77237 0.116505 -1.83452e-15)
(-1.91353 0.305619 -9.05425e-16)
(-2.05611 0.514832 -1.19777e-15)
(-2.19196 0.744873 -2.79526e-16)
(-2.32171 1.00123 3.88136e-15)
(-2.44053 1.28778 3.78295e-15)
(-2.539 1.60774 1.32061e-15)
(-2.60969 1.96331 -5.69961e-15)
(-2.64044 2.35441 9.80964e-16)
(-2.61924 2.78105 1.1874e-15)
(-2.54149 3.2389 1.01785e-16)
(-2.38932 3.72071 -6.88804e-16)
(-2.14552 4.20397 5.80839e-16)
(-1.90827 5.10611 -1.1417e-16)
(-1.53687 5.97844 1.59119e-16)
(-1.04105 6.87206 -1.08596e-15)
(-0.420985 7.72054 1.75046e-15)
(0.28462 8.46965 2.32241e-15)
(1.00456 9.07492 -6.18116e-15)
(1.76228 9.53382 -4.35107e-16)
(2.56721 9.98198 3.85154e-15)
(3.44924 10.0143 -1.7945e-15)
(4.3153 9.86509 4.41922e-16)
(5.21324 9.64902 1.98469e-15)
(6.11459 9.2626 -7.54065e-16)
(6.96384 8.69593 7.76024e-16)
(7.79831 7.99213 -1.32511e-15)
(8.60435 7.20554 -2.28853e-17)
(9.44825 6.35627 -2.43707e-16)
(10.2019 5.41113 7.26997e-16)
(11.1609 4.41045 -1.14778e-16)
(12.314 3.42646 -4.10654e-17)
(13.3781 2.40352 -1.49654e-17)
(-0.27876 -0.449042 -3.26652e-17)
(-0.466949 -0.396836 -2.17264e-17)
(-0.606957 -0.351942 -2.28536e-16)
(-0.747661 -0.299357 2.25059e-16)
(-0.887223 -0.226397 4.77911e-16)
(-1.01526 -0.136467 1.49751e-16)
(-1.13001 -0.0301708 -8.19181e-16)
(-1.23272 0.0920196 1.62796e-15)
(-1.32669 0.229099 -3.92004e-15)
(-1.41833 0.379738 2.59511e-15)
(-1.50883 0.543973 6.43931e-15)
(-1.59399 0.722554 -4.57941e-15)
(-1.67199 0.917036 -3.23806e-15)
(-1.73997 1.13001 3.53775e-15)
(-1.79203 1.35944 7.34213e-15)
(-1.82105 1.60668 1.10645e-15)
(-1.81777 1.86856 -3.62719e-15)
(-1.77619 2.1414 -8.93934e-15)
(-1.68464 2.4223 3.36862e-15)
(-1.54455 2.703 3.45022e-15)
(-1.33989 2.95281 2.04395e-15)
(-1.11677 3.43705 3.15772e-15)
(-0.827475 3.87707 -7.66056e-15)
(-0.440263 4.28416 -4.22534e-16)
(-0.0138259 4.6288 3.60981e-15)
(0.438096 4.89412 -2.67001e-15)
(0.927412 5.08235 -1.00197e-15)
(1.45802 5.20483 3.44657e-15)
(2.02731 5.25592 -1.72261e-15)
(2.60382 5.25114 -3.51158e-15)
(3.25247 5.14187 8.18844e-17)
(3.90172 4.98613 1.26386e-15)
(4.56813 4.7765 -8.55103e-17)
(5.23827 4.50781 -6.15161e-16)
(5.94698 4.2067 -3.62049e-16)
(6.69513 3.8852 8.07943e-16)
(7.53378 3.54547 -5.38015e-16)
(8.36775 3.16854 4.98596e-16)
(9.40403 2.77262 -2.96605e-16)
(10.5418 2.30892 3.41725e-17)
(11.7419 2.01537 2.33671e-16)
(-0.228788 -0.303341 -7.77586e-19)
(-0.373669 -0.253702 -1.17053e-17)
(-0.479827 -0.207701 1.27742e-16)
(-0.588264 -0.155013 -1.45958e-16)
(-0.692524 -0.0867512 -4.52082e-16)
(-0.784747 -0.00673995 1.85223e-15)
(-0.863617 0.0827069 -1.37015e-15)
(-0.931336 0.182522 1.5555e-15)
(-0.991651 0.291853 -5.01321e-17)
(-1.04955 0.410925 -4.93309e-15)
(-1.10638 0.540676 4.47027e-15)
(-1.15888 0.681262 2.98032e-15)
(-1.20585 0.834061 -2.69289e-15)
(-1.24491 0.999604 -4.90959e-15)
(-1.27138 1.17651 -1.01018e-15)
(-1.28146 1.36409 2.65464e-15)
(-1.26787 1.56008 -1.64119e-15)
(-1.22245 1.76261 2.43892e-15)
(-1.14149 1.96917 1.17207e-15)
(-1.01412 2.17321 -2.70857e-15)
(-0.839248 2.35854 -1.69816e-15)