/*--------------------------------*- C++ -*----------------------------------*\
| =========                 |                                                 |
| \\      /  F ield         | OpenFOAM: The Open Source CFD Toolbox           |
|  \\    /   O peration     | Version:  2312                                  |
|   \\  /    A nd           | Website:  www.openfoam.com                      |
|    \\/     M anipulation  |                                                 |
\*---------------------------------------------------------------------------*/
FoamFile
{
    version     2.0;
    format      ascii;
    arch        "LSB;label=32;scalar=64";
    class       volScalarField;
    location    "50";
    object      nut;
}
// * * * * * * * * * * * * * * * * * * * * * * * * * * * * * * * * * * * * * //

dimensions      [0 2 -1 0 0 0 0];

internalField   nonuniform List<scalar> 
11040
(
1.99583e-05
4.7756e-05
9.49326e-05
0.000164281
0.000278396
0.000524306
0.00111288
0.0015472
0.00168294
0.00173088
0.00179015
0.00185972
0.00192501
0.00197518
0.00200586
0.00201803
0.00201509
0.0020002
0.00197602
0.00194498
0.00190579
0.00186023
0.00181365
0.00176283
0.00170569
0.00164199
0.00157271
0.00150106
0.00142834
0.00135067
0.00126153
0.00115873
0.0010421
0.000933707
0.000874672
0.000835065
0.000766916
0.000411831
0.000499357
0.00052486
0.000505116
5.7834e-06
5.25415e-06
1.20453e-05
4.18962e-05
0.000109059
0.000208629
0.000408236
0.000679905
0.00097726
0.00130621
0.00165686
0.00201223
0.00234357
0.00261106
0.00279216
0.00289011
0.00292721
0.00293305
0.00293152
0.00293057
0.00292763
0.00291887
0.00290458
0.00288167
0.00286268
0.00284776
0.00283466
0.00282082
0.00279968
0.00276489
0.00271633
0.00267404
0.00266137
0.00262773
0.00242308
0.0019315
0.0015922
0.00188265
0.00274437
0.0028111
0.0030716
6.25613e-06
6.46739e-06
6.17428e-06
6.21212e-06
8.38975e-06
1.55601e-05
3.50347e-05
8.06874e-05
0.000140995
0.000204253
0.000283739
0.000401789
0.000578459
0.000828599
0.00115172
0.00153185
0.00194045
0.00234247
0.00270496
0.00300498
0.00323593
0.00340204
0.00352337
0.00361544
0.00369838
0.00377484
0.00384617
0.00391287
0.00397183
0.00401394
0.00404012
0.00408235
0.00417096
0.00421981
0.00404361
0.00363981
0.00360345
0.00438267
0.00533736
0.00556655
0.00527526
6.13955e-06
6.1631e-06
6.24787e-06
6.11238e-06
5.51715e-06
4.54991e-06
2.91136e-06
1.48184e-06
7.88445e-07
5.47042e-07
5.24359e-07
7.27985e-07
1.8728e-06
1.00421e-05
5.39631e-05
0.000147544
0.000284877
0.000487123
0.000772738
0.00114649
0.00160131
0.00208615
0.00254555
0.00296032
0.00332563
0.00364175
0.00391655
0.00416184
0.00438542
0.00458583
0.00476956
0.0049686
0.00519871
0.00535623
0.00529057
0.00513701
0.0054484
0.00639647
0.00743256
0.0079369
0.00796736
6.12765e-06
6.13641e-06
6.1461e-06
6.16482e-06
6.1389e-06
5.97126e-06
5.51145e-06
4.70045e-06
3.78524e-06
3.03742e-06
2.46316e-06
1.90151e-06
1.27347e-06
6.95806e-07
5.83451e-08
3.19216e-09
7.79671e-09
9.53037e-08
2.87925e-06
4.68255e-05
0.000174465
0.000362663
0.000620369
0.000951365
0.00135355
0.0018179
0.00232892
0.00286959
0.00341846
0.00394999
0.00445386
0.00494477
0.0054195
0.00578964
0.00597474
0.00616031
0.00677136
0.00783774
0.00889599
0.00949501
0.00997642
6.10962e-06
6.11324e-06
6.11909e-06
6.12525e-06
6.1309e-06
6.14295e-06
6.16188e-06
6.16164e-06
6.11966e-06
6.044e-06
5.94845e-06
5.82255e-06
5.6437e-06
5.33073e-06
4.65182e-06
3.75249e-06
2.59584e-06
1.32938e-06
1.71626e-07
9.50898e-10
4.23126e-08
4.11809e-07
2.84563e-06
2.21724e-05
0.000107699
0.000252152
0.000468545
0.000788418
0.00123108
0.00180588
0.00251317
0.00333304
0.00419629
0.00498784
0.00565081
0.00633457
0.00730861
0.00852491
0.00956667
0.010049
0.0106139
6.10676e-06
6.11213e-06
6.11701e-06
6.12166e-06
6.12587e-06
6.12872e-06
6.13441e-06
6.14983e-06
6.17628e-06
6.20832e-06
6.24115e-06
6.27549e-06
6.3132e-06
6.36458e-06
6.44831e-06
6.43355e-06
6.30664e-06
6.02533e-06
5.52359e-06
4.45667e-06
2.89484e-06
1.56872e-06
2.72494e-07
3.70795e-07
2.39545e-06
1.28107e-10
1.16263e-09
3.83218e-07
4.8741e-05
0.000225813
0.000520788
0.00101357
0.00172076
0.00261877
0.00368974
0.00496227
0.00645633
0.00799691
0.00913668
0.00942861
0.00975413
6.10746e-06
6.11157e-06
6.11406e-06
6.11624e-06
6.11853e-06
6.12066e-06
6.12225e-06
6.12347e-06
6.12558e-06
6.12958e-06
6.13574e-06
6.14461e-06
6.15686e-06
6.17612e-06
6.20459e-06
6.24418e-06
6.2998e-06
6.37375e-06
6.47472e-06
6.59443e-06
6.40435e-06
5.9157e-06
5.13459e-06
3.77397e-06
2.31618e-06
1.40966e-06
8.50252e-08
3.01074e-08
4.50108e-07
1.29177e-05
7.18245e-06
3.85014e-05
0.000178072
0.000499284
0.00111557
0.00219723
0.00375441
0.00551841
0.00688216
0.00716091
0.00739085
6.1071e-06
6.10945e-06
6.11028e-06
6.11084e-06
6.11174e-06
6.11298e-06
6.11426e-06
6.11538e-06
6.11612e-06
6.11646e-06
6.11658e-06
6.11665e-06
6.11693e-06
6.11777e-06
6.12e-06
6.12458e-06
6.1337e-06
6.15011e-06
6.1772e-06
6.23513e-06
6.33318e-06
6.43225e-06
6.59916e-06
6.78612e-06
6.48911e-06
6.06893e-06
5.30657e-06
3.77407e-06
2.24001e-06
3.54878e-07
4.61798e-10
2.50173e-07
3.5323e-06
5.84883e-05
7.57216e-07
0.000231389
0.00094437
0.0021613
0.00329074
0.00340229
0.0035771
6.10617e-06
6.10665e-06
6.10599e-06
6.10535e-06
6.10519e-06
6.10556e-06
6.10624e-06
6.10703e-06
6.10773e-06
6.10825e-06
6.1086e-06
6.10884e-06
6.10904e-06
6.10921e-06
6.1095e-06
6.10988e-06
6.11047e-06
6.11155e-06
6.11357e-06
6.1157e-06
6.12604e-06
6.15173e-06
6.19873e-06
6.28391e-06
6.39188e-06
6.47327e-06
6.71972e-06
6.84799e-06
6.75639e-06
5.54551e-06
3.37769e-06
1.90121e-06
8.12779e-08
3.56138e-09
3.93058e-09
5.28261e-06
1.75056e-08
0.000270247
0.000660907
0.000781502
0.000793273
6.10437e-06
6.1033e-06
6.10175e-06
6.10061e-06
6.10003e-06
6.09998e-06
6.10029e-06
6.10079e-06
6.10134e-06
6.10184e-06
6.10225e-06
6.10257e-06
6.10286e-06
6.10322e-06
6.1037e-06
6.10436e-06
6.10525e-06
6.10639e-06
6.10781e-06
6.10923e-06
6.11016e-06
6.11155e-06
6.11436e-06
6.12053e-06
6.13779e-06
6.16598e-06
6.21723e-06
6.32407e-06
6.49583e-06
6.73363e-06
6.89814e-06
6.69445e-06
5.32943e-06
3.69738e-06
3.32809e-07
4.3657e-09
5.20906e-10
5.90516e-06
7.04883e-05
2.70316e-06
9.17724e-05
6.1019e-06
6.09994e-06
6.09817e-06
6.09707e-06
6.09651e-06
6.09635e-06
6.09644e-06
6.09669e-06
6.097e-06
6.09731e-06
6.09758e-06
6.0978e-06
6.098e-06
6.0982e-06
6.09848e-06
6.0989e-06
6.09954e-06
6.10046e-06
6.10174e-06
6.10351e-06
6.10577e-06
6.1082e-06
6.11054e-06
6.11232e-06
6.11388e-06
6.11682e-06
6.11917e-06
6.12381e-06
6.13568e-06
6.21095e-06
6.34358e-06
6.46084e-06
6.76111e-06
7.37514e-06
6.90072e-06
3.45765e-06
4.61958e-07
1.35272e-10
5.55025e-10
5.47503e-09
3.83848e-12
6.09918e-06
6.09711e-06
6.09565e-06
6.09488e-06
6.09451e-06
6.09437e-06
6.09436e-06
6.09443e-06
6.09456e-06
6.09468e-06
6.0948e-06
6.0949e-06
6.09499e-06
6.09507e-06
6.09517e-06
6.09534e-06
6.09564e-06
6.09612e-06
6.09685e-06
6.09792e-06
6.0995e-06
6.10153e-06
6.10386e-06
6.10638e-06
6.1087e-06
6.11125e-06
6.11497e-06
6.11609e-06
6.11118e-06
6.11663e-06
6.14118e-06
6.1441e-06
6.13023e-06
6.35997e-06
7.12812e-06
7.37124e-06
5.86757e-06
3.7422e-06
2.65716e-06
9.23389e-07
3.2317e-08
6.09663e-06
6.09515e-06
6.09426e-06
6.09381e-06
6.09357e-06
6.09343e-06
6.09335e-06
6.0933e-06
6.09327e-06
6.09324e-06
6.09321e-06
6.0932e-06
6.09319e-06
6.09318e-06
6.09317e-06
6.0932e-06
6.0933e-06
6.0935e-06
6.09388e-06
6.09445e-06
6.09536e-06
6.09659e-06
6.09808e-06
6.09986e-06
6.10171e-06
6.10358e-06
6.1064e-06
6.11001e-06
6.11082e-06
6.10979e-06
6.11961e-06
6.13263e-06
6.09298e-06
6.04168e-06
6.21223e-06
6.56657e-06
6.47141e-06
6.15816e-06
7.1574e-06
9.71541e-06
6.14769e-06
6.09458e-06
6.0942e-06
6.09377e-06
6.09345e-06
6.09321e-06
6.09301e-06
6.09283e-06
6.09266e-06
6.09249e-06
6.09232e-06
6.09217e-06
6.09204e-06
6.09194e-06
6.09186e-06
6.0918e-06
6.09176e-06
6.09176e-06
6.09181e-06
6.09196e-06
6.09224e-06
6.09269e-06
6.09325e-06
6.09396e-06
6.09491e-06
6.09611e-06
6.09737e-06
6.09883e-06
6.10117e-06
6.10336e-06
6.10327e-06
6.10508e-06
6.11685e-06
6.12074e-06
6.08773e-06
6.06116e-06
6.17728e-06
6.30088e-06
6.00066e-06
5.7479e-06
7.31364e-06
9.11503e-06
6.09324e-06
6.09392e-06
6.09372e-06
6.09339e-06
6.09303e-06
6.09266e-06
6.09231e-06
6.09198e-06
6.09165e-06
6.09133e-06
6.09104e-06
6.09078e-06
6.09057e-06
6.09042e-06
6.09032e-06
6.09027e-06
6.09027e-06
6.09032e-06
6.09045e-06
6.09071e-06
6.0911e-06
6.09146e-06
6.09177e-06
6.09214e-06
6.09266e-06
6.09329e-06
6.09399e-06
6.09502e-06
6.09669e-06
6.09793e-06
6.09754e-06
6.10015e-06
6.10894e-06
6.1069e-06
6.0833e-06
6.0948e-06
6.17076e-06
6.1643e-06
5.89707e-06
5.81184e-06
6.37867e-06
6.0925e-06
6.09381e-06
6.09378e-06
6.09332e-06
6.09276e-06
6.09216e-06
6.09161e-06
6.09109e-06
6.09058e-06
6.09006e-06
6.08957e-06
6.08911e-06
6.08869e-06
6.08832e-06
6.088e-06
6.08774e-06
6.08753e-06
6.08739e-06
6.08731e-06
6.08735e-06
6.08755e-06
6.08779e-06
6.08797e-06
6.08813e-06
6.0883e-06
6.08855e-06
6.08888e-06
6.08932e-06
6.09004e-06
6.091e-06
6.09152e-06
6.09169e-06
6.09363e-06
6.09717e-06
6.09636e-06
6.08694e-06
6.08791e-06
6.13715e-06
6.15079e-06
5.9862e-06
5.8794e-06
6.09197e-06
6.09344e-06
6.09341e-06
6.09293e-06
6.09237e-06
6.09178e-06
6.09119e-06
6.09057e-06
6.08994e-06
6.08929e-06
6.08862e-06
6.08801e-06
6.08743e-06
6.08691e-06
6.08643e-06
6.08599e-06
6.0856e-06
6.08527e-06
6.08499e-06
6.08477e-06
6.08464e-06
6.08454e-06
6.08444e-06
6.08431e-06
6.08416e-06
6.08402e-06
6.08393e-06
6.08388e-06
6.0839e-06
6.0841e-06
6.08448e-06
6.08472e-06
6.08497e-06
6.08635e-06
6.08836e-06
6.08749e-06
6.08402e-06
6.08809e-06
6.10852e-06
6.11107e-06
6.07104e-06
6.0916e-06
6.093e-06
6.09288e-06
6.09231e-06
6.09168e-06
6.09105e-06
6.09043e-06
6.08981e-06
6.08918e-06
6.08855e-06
6.08792e-06
6.08728e-06
6.0867e-06
6.08616e-06
6.08567e-06
6.08522e-06
6.08483e-06
6.08448e-06
6.08419e-06
6.08396e-06
6.0838e-06
6.08365e-06
6.08351e-06
6.08335e-06
6.08315e-06
6.08294e-06
6.08272e-06
6.08264e-06
6.08272e-06
6.08293e-06
6.08327e-06
6.08371e-06
6.08416e-06
6.0847e-06
6.08557e-06
6.08679e-06
6.08732e-06
6.08595e-06
6.08764e-06
6.09643e-06
6.1001e-06
6.09142e-06
6.09265e-06
6.09239e-06
6.09174e-06
6.09108e-06
6.09045e-06
6.08985e-06
6.08927e-06
6.08868e-06
6.08809e-06
6.08751e-06
6.08693e-06
6.08636e-06
6.08579e-06
6.08526e-06
6.08479e-06
6.08436e-06
6.08398e-06
6.08364e-06
6.08336e-06
6.08314e-06
6.0829e-06
6.08267e-06
6.08244e-06
6.08222e-06
6.08209e-06
6.08207e-06
6.08213e-06
6.08228e-06
6.08252e-06
6.08285e-06
6.08326e-06
6.08375e-06
6.08428e-06
6.08486e-06
6.08561e-06
6.08647e-06
6.0871e-06
6.08734e-06
6.08829e-06
6.09059e-06
6.09128e-06
6.09223e-06
6.09182e-06
6.09113e-06
6.09047e-06
6.08989e-06
6.08936e-06
6.08885e-06
6.08834e-06
6.08783e-06
6.08731e-06
6.08679e-06
6.08627e-06
6.08575e-06
6.08524e-06
6.08474e-06
6.08426e-06
6.08382e-06
6.08343e-06
6.0831e-06
6.08283e-06
6.08251e-06
6.08221e-06
6.08202e-06
6.08192e-06
6.08191e-06
6.08196e-06
6.08209e-06
6.08229e-06
6.08253e-06
6.08281e-06
6.08314e-06
6.08352e-06
6.08394e-06
6.08439e-06
6.08489e-06
6.08545e-06
6.08607e-06
6.08664e-06
6.08716e-06
6.08776e-06
6.09108e-06
6.09174e-06
6.09122e-06
6.09051e-06
6.08989e-06
6.08937e-06
6.08892e-06
6.0885e-06
6.0881e-06
6.08769e-06
6.08727e-06
6.08684e-06
6.08638e-06
6.08592e-06
6.08545e-06
6.08498e-06
6.08451e-06
6.08406e-06
6.08362e-06
6.08319e-06
6.0828e-06
6.08245e-06
6.08219e-06
6.08201e-06
6.0819e-06
6.08186e-06
6.08187e-06
6.08195e-06
6.08206e-06
6.08222e-06
6.08243e-06
6.08266e-06
6.08293e-06
6.08323e-06
6.08356e-06
6.08392e-06
6.0843e-06
6.08472e-06
6.08517e-06
6.08569e-06
6.08611e-06
6.09078e-06
6.09121e-06
6.09064e-06
6.08995e-06
6.08936e-06
6.08889e-06
6.08851e-06
6.08817e-06
6.08787e-06
6.08758e-06
6.08728e-06
6.08695e-06
6.0866e-06
6.08622e-06
6.08582e-06
6.08539e-06
6.08496e-06
6.08452e-06
6.08409e-06
6.08367e-06
6.08326e-06
6.0829e-06
6.0826e-06
6.08237e-06
6.08219e-06
6.08206e-06
6.08198e-06
6.08195e-06
6.08194e-06
6.08199e-06
6.08206e-06
6.08216e-06
6.08229e-06
6.08245e-06
6.08265e-06
6.08288e-06
6.08314e-06
6.08346e-06
6.08383e-06
6.08429e-06
6.08475e-06
6.09041e-06
6.0907e-06
6.09015e-06
6.0895e-06
6.08895e-06
6.08851e-06
6.08816e-06
6.08788e-06
6.08766e-06
6.08745e-06
6.08726e-06
6.08705e-06
6.08681e-06
6.08654e-06
6.08624e-06
6.0859e-06
6.08552e-06
6.08513e-06
6.08472e-06
6.0843e-06
6.08389e-06
6.0835e-06
6.08316e-06
6.08287e-06
6.08262e-06
6.08241e-06
6.08223e-06
6.0821e-06
6.08199e-06
6.0819e-06
6.08187e-06
6.08186e-06
6.08187e-06
6.08193e-06
6.08203e-06
6.08219e-06
6.0824e-06
6.0827e-06
6.08309e-06
6.08361e-06
6.08422e-06
6.08998e-06
6.09019e-06
6.08972e-06
6.08917e-06
6.08868e-06
6.08828e-06
6.08795e-06
6.0877e-06
6.08751e-06
6.08735e-06
6.08723e-06
6.08711e-06
6.08698e-06
6.08682e-06
6.08662e-06
6.08638e-06
6.0861e-06
6.08578e-06
6.08543e-06
6.08505e-06
6.08465e-06
6.08425e-06
6.08388e-06
6.08354e-06
6.08321e-06
6.08292e-06
6.08265e-06
6.0824e-06
6.08219e-06
6.08198e-06
6.08183e-06
6.08172e-06
6.08165e-06
6.08163e-06
6.08167e-06
6.08179e-06
6.08201e-06
6.08233e-06
6.08282e-06
6.0834e-06
6.08415e-06
6.0895e-06
6.08965e-06
6.08931e-06
6.08892e-06
6.08855e-06
6.08823e-06
6.08794e-06
6.08769e-06
6.0875e-06
6.08736e-06
6.08726e-06
6.08718e-06
6.08711e-06
6.08703e-06
6.08693e-06
6.08679e-06
6.08662e-06
6.08639e-06
6.08612e-06
6.08581e-06
6.08546e-06
6.08509e-06
6.08471e-06
6.08434e-06
6.08396e-06
6.0836e-06
6.08324e-06
6.08289e-06
6.08257e-06
6.08229e-06
6.082e-06
6.08179e-06
6.08164e-06
6.08155e-06
6.08156e-06
6.08168e-06
6.08194e-06
6.08231e-06
6.08283e-06
6.08342e-06
6.08415e-06
6.08896e-06
6.08906e-06
6.08886e-06
6.08866e-06
6.08848e-06
6.08828e-06
6.08807e-06
6.08787e-06
6.08769e-06
6.08753e-06
6.08742e-06
6.08734e-06
6.08728e-06
6.08723e-06
6.08719e-06
6.08712e-06
6.08703e-06
6.0869e-06
6.08673e-06
6.0865e-06
6.08623e-06
6.08592e-06
6.08558e-06
6.08521e-06
6.08482e-06
6.08441e-06
6.08399e-06
6.08357e-06
6.08316e-06
6.08279e-06
6.08239e-06
6.08209e-06
6.08186e-06
6.08173e-06
6.08172e-06
6.08184e-06
6.0821e-06
6.08245e-06
6.08293e-06
6.08347e-06
6.08414e-06
6.08841e-06
6.08843e-06
6.08832e-06
6.08831e-06
6.08833e-06
6.08831e-06
6.08825e-06
6.08814e-06
6.088e-06
6.08786e-06
6.08774e-06
6.08763e-06
6.08755e-06
6.0875e-06
6.08746e-06
6.08742e-06
6.08738e-06
6.08731e-06
6.08722e-06
6.08707e-06
6.08689e-06
6.08666e-06
6.08638e-06
6.08606e-06
6.08569e-06
6.08528e-06
6.08483e-06
6.08437e-06
6.0839e-06
6.08346e-06
6.08299e-06
6.08261e-06
6.08231e-06
6.08213e-06
6.0821e-06
6.08218e-06
6.08239e-06
6.08269e-06
6.0831e-06
6.08357e-06
6.08415e-06
6.08784e-06
6.08776e-06
6.08769e-06
6.08781e-06
6.08801e-06
6.08818e-06
6.08829e-06
6.08833e-06
6.0883e-06
6.08823e-06
6.08813e-06
6.08803e-06
6.08793e-06
6.08785e-06
6.08779e-06
6.08775e-06
6.08771e-06
6.08767e-06
6.08761e-06
6.08753e-06
6.08742e-06
6.08727e-06
6.08707e-06
6.08681e-06
6.0865e-06
6.08612e-06
6.08569e-06
6.08522e-06
6.08473e-06
6.08423e-06
6.08377e-06
6.08329e-06
6.08293e-06
6.08271e-06
6.08263e-06
6.08266e-06
6.08279e-06
6.08301e-06
6.08334e-06
6.08371e-06
6.08419e-06
6.08726e-06
6.08709e-06
6.08701e-06
6.08718e-06
6.08749e-06
6.08781e-06
6.08809e-06
6.0883e-06
6.08842e-06
6.08847e-06
6.08846e-06
6.08841e-06
6.08834e-06
6.08826e-06
6.08818e-06
6.08811e-06
6.08806e-06
6.08801e-06
6.08796e-06
6.0879e-06
6.08783e-06
6.08773e-06
6.0876e-06
6.08741e-06
6.08717e-06
6.08685e-06
6.08647e-06
6.08603e-06
6.08555e-06
6.08505e-06
6.08457e-06
6.08405e-06
6.08366e-06
6.0834e-06
6.08325e-06
6.08321e-06
6.08326e-06
6.08338e-06
6.08361e-06
6.08388e-06
6.08425e-06
6.08668e-06
6.08644e-06
6.08632e-06
6.08648e-06
6.08682e-06
6.08722e-06
6.08762e-06
6.08796e-06
6.08824e-06
6.08844e-06
6.08857e-06
6.08863e-06
6.08863e-06
6.0886e-06
6.08854e-06
6.08847e-06
6.0884e-06
6.08834e-06
6.08828e-06
6.08822e-06
6.08816e-06
6.08808e-06
6.08798e-06
6.08785e-06
6.08766e-06
6.08742e-06
6.08711e-06
6.08672e-06
6.08628e-06
6.0858e-06
6.08533e-06
6.08482e-06
6.08441e-06
6.08411e-06
6.08391e-06
6.08379e-06
6.08376e-06
6.0838e-06
6.08393e-06
6.08409e-06
6.08436e-06
6.08608e-06
6.08582e-06
6.08566e-06
6.08578e-06
6.08608e-06
6.08649e-06
6.08693e-06
6.08736e-06
6.08775e-06
6.08808e-06
6.08835e-06
6.08854e-06
6.08867e-06
6.08873e-06
6.08875e-06
6.08872e-06
6.08868e-06
6.08862e-06
6.08855e-06
6.08849e-06
6.08842e-06
6.08835e-06
6.08825e-06
6.08814e-06
6.08799e-06
6.0878e-06
6.08756e-06
6.08725e-06
6.08687e-06
6.08644e-06
6.08598e-06
6.08556e-06
6.08509e-06
6.08476e-06
6.08452e-06
6.08436e-06
6.08426e-06
6.08421e-06
6.08425e-06
6.08432e-06
6.08448e-06
6.08546e-06
6.08522e-06
6.08505e-06
6.08512e-06
6.08536e-06
6.08572e-06
6.08613e-06
6.08657e-06
6.08701e-06
6.08742e-06
6.0878e-06
6.08812e-06
6.08837e-06
6.08856e-06
6.08868e-06
6.08875e-06
6.08877e-06
6.08875e-06
6.08871e-06
6.08866e-06
6.08859e-06
6.08852e-06
6.08842e-06
6.08832e-06
6.08819e-06
6.08803e-06
6.08783e-06
6.08759e-06
6.08729e-06
6.08692e-06
6.08651e-06
6.08611e-06
6.08566e-06
6.08532e-06
6.08505e-06
6.08484e-06
6.08468e-06
6.08458e-06
6.08454e-06
6.08452e-06
6.0846e-06
6.0848e-06
6.08463e-06
6.08449e-06
6.08452e-06
6.0847e-06
6.08498e-06
6.08532e-06
6.08571e-06
6.08613e-06
6.08657e-06
6.087e-06
6.0874e-06
6.08775e-06
6.08806e-06
6.08829e-06
6.08847e-06
6.08859e-06
6.08865e-06
6.08867e-06
6.08866e-06
6.08862e-06
6.08856e-06
6.08847e-06
6.08837e-06
6.08825e-06
6.08811e-06
6.08794e-06
6.08775e-06
6.08751e-06
6.08722e-06
6.08687e-06
6.0865e-06
6.08607e-06
6.08573e-06
6.08545e-06
6.08521e-06
6.08501e-06
6.08486e-06
6.08476e-06
6.08468e-06
6.08469e-06
6.0841e-06
6.08402e-06
6.08393e-06
6.08396e-06
6.08409e-06
6.08429e-06
6.08455e-06
6.08487e-06
6.08523e-06
6.08563e-06
6.08605e-06
6.08647e-06
6.08688e-06
6.08726e-06
6.08759e-06
6.08787e-06
6.08809e-06
6.08826e-06
6.08836e-06
6.08842e-06
6.08844e-06
6.08842e-06
6.08836e-06
6.08828e-06
6.08817e-06
6.08805e-06
6.0879e-06
6.08773e-06
6.08754e-06
6.08731e-06
6.08704e-06
6.08672e-06
6.08634e-06
6.08599e-06
6.08569e-06
6.08543e-06
6.08521e-06
6.08502e-06
6.08488e-06
6.08474e-06
6.0847e-06
6.08334e-06
6.08336e-06
6.08335e-06
6.08339e-06
6.08349e-06
6.08364e-06
6.08382e-06
6.08406e-06
6.08434e-06
6.08467e-06
6.08504e-06
6.08544e-06
6.08585e-06
6.08625e-06
6.08664e-06
6.08699e-06
6.0873e-06
6.08755e-06
6.08775e-06
6.0879e-06
6.08799e-06
6.08803e-06
6.08803e-06
6.08799e-06
6.08792e-06
6.08782e-06
6.0877e-06
6.08755e-06
6.08739e-06
6.08721e-06
6.08699e-06
6.08674e-06
6.08645e-06
6.08608e-06
6.08577e-06
6.0855e-06
6.08526e-06
6.08505e-06
6.08487e-06
6.08469e-06
6.08461e-06
6.08252e-06
6.08262e-06
6.08268e-06
6.08275e-06
6.08284e-06
6.08295e-06
6.08309e-06
6.08326e-06
6.08347e-06
6.08373e-06
6.08403e-06
6.08437e-06
6.08474e-06
6.08513e-06
6.08552e-06
6.0859e-06
6.08626e-06
6.08658e-06
6.08686e-06
6.08708e-06
6.08726e-06
6.08738e-06
6.08744e-06
6.08746e-06
6.08744e-06
6.08739e-06
6.0873e-06
6.08719e-06
6.08705e-06
6.0869e-06
6.08673e-06
6.08653e-06
6.08631e-06
6.086e-06
6.0857e-06
6.08542e-06
6.08516e-06
6.08493e-06
6.08474e-06
6.08453e-06
6.08442e-06
6.08161e-06
6.08177e-06
6.08188e-06
6.08197e-06
6.08207e-06
6.08217e-06
6.08228e-06
6.08241e-06
6.08258e-06
6.08278e-06
6.08302e-06
6.0833e-06
6.08361e-06
6.08395e-06
6.08431e-06
6.08468e-06
6.08505e-06
6.0854e-06
6.08572e-06
6.086e-06
6.08625e-06
6.08644e-06
6.08658e-06
6.08666e-06
6.08671e-06
6.08671e-06
6.08667e-06
6.0866e-06
6.08651e-06
6.08639e-06
6.08625e-06
6.08609e-06
6.08592e-06
6.08569e-06
6.08545e-06
6.08519e-06
6.08493e-06
6.08469e-06
6.08448e-06
6.08426e-06
6.08412e-06
6.08062e-06
6.08079e-06
6.08092e-06
6.08103e-06
6.08113e-06
6.08123e-06
6.08133e-06
6.08146e-06
6.0816e-06
6.08177e-06
6.08196e-06
6.08219e-06
6.08245e-06
6.08273e-06
6.08305e-06
6.08338e-06
6.08372e-06
6.08407e-06
6.0844e-06
6.08471e-06
6.08499e-06
6.08523e-06
6.08543e-06
6.08558e-06
6.08569e-06
6.08575e-06
6.08578e-06
6.08576e-06
6.08571e-06
6.08564e-06
6.08554e-06
6.08542e-06
6.08529e-06
6.08511e-06
6.08494e-06
6.08475e-06
6.08455e-06
6.08432e-06
6.0841e-06
6.08388e-06
6.08373e-06
6.07957e-06
6.07971e-06
6.07981e-06
6.0799e-06
6.08e-06
6.0801e-06
6.08022e-06
6.08034e-06
6.08048e-06
6.08064e-06
6.08081e-06
6.081e-06
6.08122e-06
6.08146e-06
6.08172e-06
6.082e-06
6.0823e-06
6.08261e-06
6.08293e-06
6.08324e-06
6.08353e-06
6.08379e-06
6.08403e-06
6.08423e-06
6.08439e-06
6.08451e-06
6.08459e-06
6.08463e-06
6.08463e-06
6.08461e-06
6.08456e-06
6.08448e-06
6.08439e-06
6.08427e-06
6.08414e-06
6.08401e-06
6.08386e-06
6.08371e-06
6.08355e-06
6.08337e-06
6.08322e-06
6.07845e-06
6.07854e-06
6.07859e-06
6.07865e-06
6.07872e-06
6.07881e-06
6.07893e-06
6.07906e-06
6.0792e-06
6.07935e-06
6.07951e-06
6.07969e-06
6.07987e-06
6.08008e-06
6.08029e-06
6.08053e-06
6.08078e-06
6.08105e-06
6.08133e-06
6.08161e-06
6.08188e-06
6.08214e-06
6.08239e-06
6.08261e-06
6.08281e-06
6.08297e-06
6.08309e-06
6.08318e-06
6.08324e-06
6.08326e-06
6.08326e-06
6.08323e-06
6.08318e-06
6.08311e-06
6.08302e-06
6.08293e-06
6.08283e-06
6.08273e-06
6.08262e-06
6.08251e-06
6.0824e-06
6.07727e-06
6.07731e-06
6.0773e-06
6.0773e-06
6.07733e-06
6.0774e-06
6.0775e-06
6.07762e-06
6.07775e-06
6.0779e-06
6.07805e-06
6.07821e-06
6.07837e-06
6.07854e-06
6.07873e-06
6.07892e-06
6.07913e-06
6.07934e-06
6.07957e-06
6.07981e-06
6.08005e-06
6.08029e-06
6.08052e-06
6.08074e-06
6.08095e-06
6.08113e-06
6.08128e-06
6.08141e-06
6.0815e-06
6.08157e-06
6.08161e-06
6.08163e-06
6.08163e-06
6.08161e-06
6.08158e-06
6.08154e-06
6.08149e-06
6.08144e-06
6.08138e-06
6.08133e-06
6.08126e-06
6.07603e-06
6.07602e-06
6.07596e-06
6.07591e-06
6.07589e-06
6.07592e-06
6.07598e-06
6.07607e-06
6.07618e-06
6.0763e-06
6.07642e-06
6.07655e-06
6.07669e-06
6.07683e-06
6.07697e-06
6.07713e-06
6.07729e-06
6.07746e-06
6.07764e-06
6.07783e-06
6.07802e-06
6.07822e-06
6.07842e-06
6.07862e-06
6.07881e-06
6.07899e-06
6.07915e-06
6.0793e-06
6.07942e-06
6.07951e-06
6.07958e-06
6.07963e-06
6.07966e-06
6.07968e-06
6.07968e-06
6.07967e-06
6.07965e-06
6.07963e-06
6.0796e-06
6.07958e-06
6.07955e-06
6.07472e-06
6.07466e-06
6.07456e-06
6.07447e-06
6.07442e-06
6.07441e-06
6.07443e-06
6.07447e-06
6.07453e-06
6.0746e-06
6.07467e-06
6.07476e-06
6.07485e-06
6.07494e-06
6.07503e-06
6.07513e-06
6.07524e-06
6.07535e-06
6.07547e-06
6.07559e-06
6.07573e-06
6.07587e-06
6.07602e-06
6.07617e-06
6.07633e-06
6.07648e-06
6.07663e-06
6.07677e-06
6.0769e-06
6.07701e-06
6.07712e-06
6.07721e-06
6.07728e-06
6.07735e-06
6.0774e-06
6.07745e-06
6.0775e-06
6.07754e-06
6.07758e-06
6.07763e-06
6.07765e-06
6.07332e-06
6.07323e-06
6.07311e-06
6.07301e-06
6.07293e-06
6.07289e-06
6.07287e-06
6.07286e-06
6.07286e-06
6.07287e-06
6.07288e-06
6.0729e-06
6.07292e-06
6.07293e-06
6.07295e-06
6.07297e-06
6.07299e-06
6.07302e-06
6.07306e-06
6.07311e-06
6.07317e-06
6.07324e-06
6.07333e-06
6.07343e-06
6.07354e-06
6.07366e-06
6.07378e-06
6.0739e-06
6.07401e-06
6.07412e-06
6.07421e-06
6.07429e-06
6.07436e-06
6.07441e-06
6.07446e-06
6.07449e-06
6.07452e-06
6.07453e-06
6.07455e-06
6.07456e-06
6.07455e-06
6.07182e-06
6.07173e-06
6.07161e-06
6.07152e-06
6.07144e-06
6.07138e-06
6.07133e-06
6.07128e-06
6.07123e-06
6.07118e-06
6.07112e-06
6.07106e-06
6.071e-06
6.07092e-06
6.07085e-06
6.07077e-06
6.07069e-06
6.07063e-06
6.07057e-06
6.07051e-06
6.07047e-06
6.07044e-06
6.07042e-06
6.07041e-06
6.07042e-06
6.07044e-06
6.07047e-06
6.07052e-06
6.07058e-06
6.07064e-06
6.07072e-06
6.0708e-06
6.07088e-06
6.07098e-06
6.07107e-06
6.07117e-06
6.07128e-06
6.0714e-06
6.07152e-06
6.07166e-06
6.07179e-06
6.07023e-06
6.07016e-06
6.07008e-06
6.07002e-06
6.06996e-06
6.06991e-06
6.06985e-06
6.06979e-06
6.06971e-06
6.06962e-06
6.0695e-06
6.06937e-06
6.06921e-06
6.06906e-06
6.06894e-06
6.06887e-06
6.06884e-06
6.06886e-06
6.0689e-06
6.06896e-06
6.06905e-06
6.06915e-06
6.06926e-06
6.06938e-06
6.06951e-06
6.06964e-06
6.06976e-06
6.0699e-06
6.07003e-06
6.07016e-06
6.07028e-06
6.0704e-06
6.07051e-06
6.07062e-06
6.07073e-06
6.07083e-06
6.07092e-06
6.07101e-06
6.0711e-06
6.07119e-06
6.07125e-06
6.06852e-06
6.06849e-06
6.06847e-06
6.06845e-06
6.06844e-06
6.06843e-06
6.06841e-06
6.06838e-06
6.06835e-06
6.06829e-06
6.0682e-06
6.06808e-06
6.06794e-06
6.06792e-06
6.06802e-06
6.06823e-06
6.06853e-06
6.0689e-06
6.06933e-06
6.06981e-06
6.07034e-06
6.07091e-06
6.07151e-06
6.07213e-06
6.07276e-06
6.0734e-06
6.07401e-06
6.07459e-06
6.07511e-06
6.07557e-06
6.07596e-06
6.0763e-06
6.07658e-06
6.07681e-06
6.07699e-06
6.07712e-06
6.07721e-06
6.07727e-06
6.07729e-06
6.0773e-06
6.07724e-06
0.0082636
0.0213646
0.0295189
0.0288872
0.0221291
0.0126944
0.00523223
0.00168836
0.00050475
0.000158341
4.18379e-05
1.43114e-05
1.13736e-05
1.06842e-05
9.28492e-06
7.75573e-06
2.9031e-06
1.82143e-07
1.376e-07
6.24678e-08
2.21446e-07
4.66384e-09
4.65672e-09
1.47478e-07
1.59494e-06
5.20266e-06
1.01539e-05
1.36428e-05
1.23002e-05
9.54152e-06
7.06516e-06
5.8145e-06
5.71593e-06
6.16158e-06
6.5996e-06
6.77537e-06
6.74734e-06
6.66453e-06
6.61122e-06
6.59591e-06
6.59438e-06
6.58918e-06
6.57673e-06
6.56006e-06
6.54413e-06
6.535e-06
6.52529e-06
6.51472e-06
6.50529e-06
6.49921e-06
6.49624e-06
6.49544e-06
6.49651e-06
6.49942e-06
6.50398e-06
6.50974e-06
6.51556e-06
6.52798e-06
6.5312e-06
6.53242e-06
6.53187e-06
6.52883e-06
6.52263e-06
6.51297e-06
6.49995e-06
6.48384e-06
6.465e-06
6.44387e-06
6.42094e-06
6.39671e-06
6.37186e-06
6.34655e-06
6.32369e-06
6.29028e-06
0.0109787
0.0251959
0.0343384
0.0354672
0.0304186
0.0208998
0.0106642
0.00399979
0.00122175
0.000367472
0.000121824
4.15896e-05
1.83341e-05
8.52282e-06
4.64889e-06
9.25901e-07
1.20328e-08
1.46713e-12
1.91288e-06
1.47325e-05
2.22402e-05
1.77676e-05
5.63161e-06
4.94549e-13
6.10523e-09
2.17947e-08
6.49922e-12
4.31341e-07
3.25165e-06
8.38941e-06
1.10043e-05
1.10497e-05
9.0504e-06
7.12309e-06
6.21474e-06
6.15884e-06
6.43374e-06
6.66869e-06
6.7495e-06
6.72501e-06
6.67145e-06
6.632e-06
6.61226e-06
6.60236e-06
6.5907e-06
6.59084e-06
6.58629e-06
6.57655e-06
6.5638e-06
6.55428e-06
6.55035e-06
6.55089e-06
6.55373e-06
6.55789e-06
6.56297e-06
6.56854e-06
6.57326e-06
6.57455e-06
6.57121e-06
6.56674e-06
6.56162e-06
6.5548e-06
6.54516e-06
6.53208e-06
6.51556e-06
6.49595e-06
6.47375e-06
6.44952e-06
6.42384e-06
6.39729e-06
6.37065e-06
6.34419e-06
6.32075e-06
6.2881e-06
0.0125795
0.0278407
0.0383162
0.0412373
0.0383142
0.0303426
0.0191911
0.00915138
0.00331327
0.001041
0.000336602
0.000121081
2.74828e-05
3.47959e-06
5.71089e-07
5.01933e-08
9.13059e-08
8.37048e-05
0.00010207
0.000226966
0.000258215
0.0002484
0.000166182
4.27684e-05
0.000198642
0.000124445
5.30239e-08
1.76904e-06
1.43417e-08
8.3889e-08
1.41574e-06
3.38441e-06
6.86131e-06
9.68545e-06
1.01651e-05
8.66906e-06
7.01593e-06
6.31524e-06
6.28508e-06
6.51327e-06
6.70528e-06
6.76515e-06
6.73031e-06
6.67272e-06
6.62685e-06
6.61631e-06
6.62706e-06
6.63804e-06
6.63528e-06
6.62357e-06
6.61317e-06
6.60963e-06
6.6116e-06
6.61605e-06
6.62102e-06
6.62558e-06
6.62965e-06
6.62389e-06
6.61509e-06
6.60463e-06
6.59345e-06
6.58142e-06
6.56752e-06
6.55068e-06
6.53055e-06
6.5074e-06
6.48185e-06
6.4546e-06
6.42637e-06
6.39784e-06
6.3698e-06
6.34257e-06
6.31883e-06
6.28707e-06
0.0135798
0.0293645
0.0410391
0.045732
0.0449744
0.0395262
0.0295851
0.0178757
0.00834387
0.0030522
0.000945207
0.000291035
7.48856e-05
7.55385e-06
6.78263e-09
1.06861e-05
1.72751e-05
0.000506552
0.00105224
0.00145757
0.00167091
0.00167962
0.00154719
0.00129951
0.000971663
0.000662254
0.000373708
8.75414e-05
0.000233035
0.000104261
1.12676e-05
1.27577e-08
3.14338e-08
9.35215e-08
2.86957e-06
7.33826e-06
1.04942e-05
1.02713e-05
8.26716e-06
6.83885e-06
6.31198e-06
6.35993e-06
6.59245e-06
6.75961e-06
6.79014e-06
6.74077e-06
6.69252e-06
6.67826e-06
6.68241e-06
6.6844e-06
6.67882e-06
6.67214e-06
6.66929e-06
6.67051e-06
6.67356e-06
6.67613e-06
6.6783e-06
6.6729e-06
6.66188e-06
6.6466e-06
6.62877e-06
6.60992e-06
6.59026e-06
6.56888e-06
6.54496e-06
6.51836e-06
6.48963e-06
6.45957e-06
6.42906e-06
6.39886e-06
6.36978e-06
6.34207e-06
6.31818e-06
6.28728e-06
0.0157665
0.030482
0.042445
0.0487969
0.0499478
0.047195
0.0400072
0.0291118
0.0175463
0.00859602
0.00336951
0.00101242
0.000135947
0.000256007
1.5907e-10
0.00020685
0.0010131
0.00226179
0.00315581
0.00377113
0.00416459
0.00431182
0.00425312
0.00400395
0.00359158
0.00305945
0.00244682
0.0017903
0.00112289
0.000570359
0.000186354
0.000309004
0.000144953
3.74285e-08
1.31608e-09
3.49882e-08
1.25787e-07
2.41604e-06
6.9992e-06
1.04095e-05
9.69461e-06
7.93687e-06
6.73729e-06
6.31331e-06
6.39144e-06
6.6081e-06
6.75806e-06
6.80956e-06
6.80232e-06
6.77589e-06
6.75011e-06
6.73338e-06
6.7264e-06
6.72601e-06
6.72781e-06
6.72815e-06
6.7264e-06
6.72057e-06
6.70914e-06
6.69139e-06
6.66825e-06
6.64213e-06
6.61516e-06
6.58776e-06
6.5593e-06
6.52919e-06
6.49753e-06
6.46498e-06
6.43248e-06
6.40087e-06
6.37097e-06
6.34295e-06
6.31901e-06
6.28883e-06
0.016391
0.0301113
0.0433714
0.0505882
0.0531505
0.0526122
0.0486743
0.0404864
0.0295654
0.018808
0.0103994
0.00509706
0.00233874
0.00127912
0.00129322
0.00167853
0.00321097
0.00480906
0.00605364
0.00690233
0.00744831
0.00771972
0.0077635
0.00759797
0.00724275
0.00673463
0.00607692
0.00528636
0.00438041
0.00338999
0.00241988
0.001468
0.000749967
0.000255716
0.000337684
0.00014653
9.51165e-09
9.35991e-11
1.91301e-07
6.35998e-07
2.86355e-06
7.20943e-06
9.5452e-06
9.01966e-06
7.59063e-06
6.58971e-06
6.27337e-06
6.3857e-06
6.63402e-06
6.82558e-06
6.89709e-06
6.87957e-06
6.8322e-06
6.7954e-06
6.77932e-06
6.77563e-06
6.77343e-06
6.76766e-06
6.75606e-06
6.73725e-06
6.71092e-06
6.67891e-06
6.64431e-06
6.60947e-06
6.57507e-06
6.54073e-06
6.50609e-06
6.47133e-06
6.43716e-06
6.40437e-06
6.37378e-06
6.34552e-06
6.3215e-06
6.29179e-06
0.0143212
0.0264638
0.0406746
0.0504873
0.0547168
0.0557846
0.0543572
0.0497227
0.0414836
0.0314676
0.0219132
0.0144185
0.00941945
0.00668025
0.00566873
0.00557191
0.0068397
0.00836083
0.00967584
0.0106263
0.0112439
0.0115712
0.0116674
0.0115616
0.0112766
0.0108466
0.0102752
0.00956552
0.00871389
0.00771258
0.00660285
0.00533604
0.00401592
0.00274746
0.00159469
0.000760316
0.000184339
0.000329261
0.000140592
6.07733e-06
5.75009e-10
1.94344e-07
1.3559e-06
4.25389e-06
8.62631e-06
1.02764e-05
9.19501e-06
7.58266e-06
6.61245e-06
6.34346e-06
6.49127e-06
6.74749e-06
6.91538e-06
6.95382e-06
6.91663e-06
6.86555e-06
6.82903e-06
6.8083e-06
6.79423e-06
6.77759e-06
6.7529e-06
6.71918e-06
6.67918e-06
6.63686e-06
6.59512e-06
6.55504e-06