/*--------------------------------*- C++ -*----------------------------------*\
| =========                 |                                                 |
| \\      /  F ield         | OpenFOAM: The Open Source CFD Toolbox           |
|  \\    /   O peration     | Version:  2312                                  |
|   \\  /    A nd           | Website:  www.openfoam.com                      |
|    \\/     M anipulation  |                                                 |
\*---------------------------------------------------------------------------*/
FoamFile
{
    version     2.0;
    format      ascii;
    arch        "LSB;label=32;scalar=64";
    class       volScalarField;
    location    "50";
    object      nuTilda;
}
// * * * * * * * * * * * * * * * * * * * * * * * * * * * * * * * * * * * * * //

dimensions      [0 2 -1 0 0 0 0];

internalField   nonuniform List<scalar> 
11040
(
5.75111e-05
8.05096e-05
0.000116449
0.000175212
0.000282801
0.000525598
0.00111317
0.00154735
0.00168306
0.001731
0.00179026
0.00185982
0.00192511
0.00197527
0.00200595
0.00201811
0.00201518
0.00200029
0.00197611
0.00194507
0.00190589
0.00186033
0.00181375
0.00176294
0.00170582
0.00164212
0.00157286
0.00150122
0.00142851
0.00135087
0.00126176
0.001159
0.00104243
0.000934117
0.000875139
0.000835578
0.000767523
0.00041391
0.00050078
0.00052615
0.000506507
3.94635e-05
3.84182e-05
4.89045e-05
7.60237e-05
0.000127772
0.000216035
0.000410351
0.000680677
0.000977635
0.00130642
0.00165699
0.00201232
0.00234363
0.00261111
0.0027922
0.00289015
0.00292725
0.00293309
0.00293156
0.00293061
0.00292767
0.00291891
0.00290462
0.00288171
0.00286273
0.0028478
0.0028347
0.00282087
0.00279973
0.00276494
0.00271638
0.00267409
0.00266142
0.00262778
0.00242314
0.0019316
0.00159234
0.00188275
0.00274442
0.00281114
0.00307164
4.03472e-05
4.07287e-05
4.01972e-05
4.02667e-05
4.38947e-05
5.29896e-05
7.06271e-05
0.000105371
0.000154641
0.000211933
0.000287991
0.000403971
0.000579523
0.000829119
0.00115198
0.001532
0.00194054
0.00234254
0.00270501
0.00300502
0.00323597
0.00340207
0.0035234
0.00361546
0.0036984
0.00377487
0.00384619
0.0039129
0.00397185
0.00401396
0.00404014
0.00408237
0.00417098
0.00421983
0.00404364
0.00363984
0.00360348
0.00438269
0.00533737
0.00556656
0.00527527
4.01333e-05
4.01767e-05
4.03321e-05
4.0083e-05
3.89456e-05
3.69169e-05
3.27033e-05
2.73646e-05
2.32478e-05
2.11734e-05
2.09461e-05
2.27772e-05
2.90932e-05
4.62865e-05
8.51961e-05
0.000160352
0.000289097
0.000488617
0.000773336
0.00114676
0.00160145
0.00208623
0.00254561
0.00296036
0.00332566
0.00364177
0.00391658
0.00416186
0.00438544
0.00458584
0.00476958
0.00496861
0.00519872
0.00535625
0.00529059
0.00513702
0.00544841
0.00639648
0.00743257
0.00793691
0.00796737
4.01113e-05
4.01275e-05
4.01453e-05
4.01798e-05
4.01321e-05
3.98199e-05
3.89343e-05
3.72498e-05
3.51039e-05
3.30771e-05
3.12769e-05
2.92097e-05
2.63074e-05
2.25151e-05
1.20357e-05
5.81466e-06
7.27006e-06
1.36139e-05
3.26062e-05
7.98024e-05
0.00018442
0.000365325
0.000621295
0.00095176
0.00135375
0.00181801
0.00232899
0.00286963
0.00341849
0.00395002
0.00445387
0.00494479
0.00541951
0.00578965
0.00597475
0.00616032
0.00677137
0.00783774
0.00889599
0.00949502
0.00997642
4.00779e-05
4.00846e-05
4.00954e-05
4.01068e-05
4.01173e-05
4.01395e-05
4.01744e-05
4.0174e-05
4.00965e-05
3.9956e-05
3.9777e-05
3.95383e-05
3.91936e-05
3.85734e-05
3.7143e-05
3.5021e-05
3.17164e-05
2.66025e-05
1.57862e-05
4.29538e-06
1.11039e-05
1.96975e-05
3.25039e-05
5.96196e-05
0.000126666
0.000257441
0.000470159
0.000788993
0.00123132
0.00180599
0.00251322
0.00333307
0.00419631
0.00498786
0.00565082
0.00633458
0.00730862
0.00852491
0.00956667
0.010049
0.0106139
4.00726e-05
4.00826e-05
4.00916e-05
4.01002e-05
4.0108e-05
4.01132e-05
4.01238e-05
4.01522e-05
4.02009e-05
4.02598e-05
4.03199e-05
4.03825e-05
4.0451e-05
4.0544e-05
4.06945e-05
4.06681e-05
4.04391e-05
3.99212e-05
3.89583e-05
3.67071e-05
3.26535e-05
2.77743e-05
1.77404e-05
1.91799e-05
3.10462e-05
2.60221e-06
4.51681e-06
1.9341e-05
8.12567e-05
0.000232264
0.000522098
0.00101392
0.00172088
0.00261883
0.00368976
0.00496228
0.00645634
0.00799692
0.00913668
0.00942862
0.00975413
4.00739e-05
4.00815e-05
4.00861e-05
4.00902e-05
4.00944e-05
4.00983e-05
4.01013e-05
4.01036e-05
4.01074e-05
4.01148e-05
4.01262e-05
4.01426e-05
4.01652e-05
4.02006e-05
4.02529e-05
4.03254e-05
4.04267e-05
4.05606e-05
4.07418e-05
4.09543e-05
4.06157e-05
3.97152e-05
3.81729e-05
3.50754e-05
3.07704e-05
2.70111e-05
1.32291e-05
1.01961e-05
2.01477e-05
4.99704e-05
4.19656e-05
7.33787e-05
0.000187709
0.000500708
0.00111585
0.00219731
0.00375444
0.00551842
0.00688217
0.00716092
0.00739086
4.00733e-05
4.00776e-05
4.00791e-05
4.00802e-05
4.00818e-05
4.00841e-05
4.00865e-05
4.00886e-05
4.00899e-05
4.00906e-05
4.00908e-05
4.00909e-05
4.00915e-05
4.0093e-05
4.00971e-05
4.01056e-05
4.01224e-05
4.01527e-05
4.02026e-05
4.03088e-05
4.04872e-05
4.06658e-05
4.09627e-05
4.12899e-05
4.07674e-05
4.00024e-05
3.85246e-05
3.50757e-05
3.04992e-05
1.89677e-05
3.58567e-06
1.73612e-05
3.44511e-05
8.85934e-05
2.30082e-05
0.000237565
0.000944771
0.00216138
0.00329077
0.00340232
0.00357713
4.00715e-05
4.00724e-05
4.00712e-05
4.007e-05
4.00697e-05
4.00704e-05
4.00717e-05
4.00731e-05
4.00744e-05
4.00754e-05
4.0076e-05
4.00765e-05
4.00768e-05
4.00772e-05
4.00777e-05
4.00784e-05
4.00795e-05
4.00815e-05
4.00852e-05
4.00892e-05
4.01083e-05
4.01557e-05
4.02422e-05
4.03978e-05
4.05932e-05
4.07392e-05
4.11743e-05
4.13969e-05
4.12382e-05
3.90015e-05
3.40366e-05
2.92085e-05
1.30802e-05
5.97603e-06
6.1253e-06
3.84761e-05
8.90127e-06
0.000274903
0.000661723
0.000782086
0.000793841
4.00682e-05
4.00662e-05
4.00633e-05
4.00612e-05
4.00602e-05
4.00601e-05
4.00606e-05
4.00616e-05
4.00626e-05
4.00635e-05
4.00643e-05
4.00649e-05
4.00654e-05
4.00661e-05
4.0067e-05
4.00682e-05
4.00698e-05
4.00719e-05
4.00746e-05
4.00772e-05
4.00789e-05
4.00815e-05
4.00867e-05
4.00981e-05
4.013e-05
4.0182e-05
4.02761e-05
4.04707e-05
4.07794e-05
4.11986e-05
4.14832e-05
4.11302e-05
3.85708e-05
3.48805e-05
1.86615e-05
6.28829e-06
3.69529e-06
3.96953e-05
9.76132e-05
3.20609e-05
0.000113964
4.00636e-05
4.006e-05
4.00567e-05
4.00547e-05
4.00536e-05
4.00533e-05
4.00535e-05
4.0054e-05
4.00545e-05
4.00551e-05
4.00556e-05
4.0056e-05
4.00564e-05
4.00568e-05
4.00573e-05
4.00581e-05
4.00592e-05
4.00609e-05
4.00633e-05
4.00666e-05
4.00708e-05
4.00753e-05
4.00796e-05
4.00829e-05
4.00858e-05
4.00912e-05
4.00956e-05
4.01042e-05
4.01261e-05
4.02646e-05
4.05061e-05
4.07169e-05
4.12464e-05
4.22859e-05
4.14877e-05
3.42525e-05
2.02813e-05
2.63786e-06
3.75438e-06
6.65472e-06
1.08264e-06
4.00586e-05
4.00547e-05
4.0052e-05
4.00506e-05
4.00499e-05
4.00497e-05
4.00496e-05
4.00498e-05
4.005e-05
4.00502e-05
4.00505e-05
4.00506e-05
4.00508e-05
4.0051e-05
4.00511e-05
4.00515e-05
4.0052e-05
4.00529e-05
4.00543e-05
4.00562e-05
4.00592e-05
4.00629e-05
4.00672e-05
4.00719e-05
4.00762e-05
4.00809e-05
4.00878e-05
4.00899e-05
4.00808e-05
4.00909e-05
4.01363e-05
4.01416e-05
4.0116e-05
4.05357e-05
4.18743e-05
4.22794e-05
3.9624e-05
3.49949e-05
3.19144e-05
2.4211e-05
1.03786e-05
4.00538e-05
4.00511e-05
4.00495e-05
4.00486e-05
4.00482e-05
4.00479e-05
4.00478e-05
4.00477e-05
4.00476e-05
4.00476e-05
4.00475e-05
4.00475e-05
4.00475e-05
4.00474e-05
4.00474e-05
4.00475e-05
4.00477e-05
4.00481e-05
4.00487e-05
4.00498e-05
4.00515e-05
4.00538e-05
4.00565e-05
4.00598e-05
4.00633e-05
4.00667e-05
4.0072e-05
4.00786e-05
4.00801e-05
4.00782e-05
4.00964e-05
4.01205e-05
4.00471e-05
3.99517e-05
4.02669e-05
4.09051e-05
4.07358e-05
4.01676e-05
4.19235e-05
4.58326e-05
4.01483e-05
4.005e-05
4.00493e-05
4.00485e-05
4.0048e-05
4.00475e-05
4.00471e-05
4.00468e-05
4.00465e-05
4.00462e-05
4.00459e-05
4.00456e-05
4.00453e-05
4.00451e-05
4.0045e-05
4.00449e-05
4.00448e-05
4.00448e-05
4.00449e-05
4.00452e-05
4.00457e-05
4.00465e-05
4.00476e-05
4.00489e-05
4.00507e-05
4.00529e-05
4.00552e-05
4.00579e-05
4.00623e-05
4.00663e-05
4.00662e-05
4.00695e-05
4.00913e-05
4.00985e-05
4.00373e-05
3.9988e-05
4.02028e-05
4.04287e-05
3.9875e-05
3.93953e-05
4.21842e-05
4.49752e-05
4.00476e-05
4.00488e-05
4.00485e-05
4.00478e-05
4.00472e-05
4.00465e-05
4.00458e-05
4.00452e-05
4.00446e-05
4.0044e-05
4.00435e-05
4.0043e-05
4.00426e-05
4.00423e-05
4.00422e-05
4.00421e-05
4.0042e-05
4.00421e-05
4.00424e-05
4.00429e-05
4.00436e-05
4.00443e-05
4.00448e-05
4.00455e-05
4.00465e-05
4.00477e-05
4.0049e-05
4.00509e-05
4.0054e-05
4.00563e-05
4.00555e-05
4.00604e-05
4.00767e-05
4.00729e-05
4.00291e-05
4.00505e-05
4.01908e-05
4.01789e-05
3.968e-05
3.95179e-05
4.05694e-05
4.00462e-05
4.00486e-05
4.00486e-05
4.00477e-05
4.00467e-05
4.00456e-05
4.00445e-05
4.00436e-05
4.00426e-05
4.00417e-05
4.00407e-05
4.00399e-05
4.00391e-05
4.00384e-05
4.00378e-05
4.00374e-05
4.0037e-05
4.00367e-05
4.00366e-05
4.00366e-05
4.0037e-05
4.00374e-05
4.00378e-05
4.00381e-05
4.00384e-05
4.00389e-05
4.00395e-05
4.00403e-05
4.00416e-05
4.00434e-05
4.00444e-05
4.00447e-05
4.00483e-05
4.00549e-05
4.00534e-05
4.00359e-05
4.00377e-05
4.01288e-05
4.0154e-05
3.98479e-05
3.96465e-05
4.00452e-05
4.00479e-05
4.00479e-05
4.0047e-05
4.00459e-05
4.00449e-05
4.00438e-05
4.00426e-05
4.00414e-05
4.00402e-05
4.0039e-05
4.00379e-05
4.00368e-05
4.00358e-05
4.00349e-05
4.00341e-05
4.00334e-05
4.00328e-05
4.00323e-05
4.00318e-05
4.00316e-05
4.00314e-05
4.00312e-05
4.0031e-05
4.00307e-05
4.00305e-05
4.00303e-05
4.00302e-05
4.00302e-05
4.00306e-05
4.00313e-05
4.00318e-05
4.00322e-05
4.00348e-05
4.00385e-05
4.00369e-05
4.00305e-05
4.0038e-05
4.00759e-05
4.00806e-05
4.00063e-05
4.00445e-05
4.00471e-05
4.00469e-05
4.00458e-05
4.00447e-05
4.00435e-05
4.00424e-05
4.00412e-05
4.004e-05
4.00389e-05
4.00377e-05
4.00365e-05
4.00354e-05
4.00344e-05
4.00335e-05
4.00327e-05
4.0032e-05
4.00313e-05
4.00308e-05
4.00303e-05
4.003e-05
4.00298e-05
4.00295e-05
4.00292e-05
4.00288e-05
4.00284e-05
4.0028e-05
4.00279e-05
4.0028e-05
4.00284e-05
4.00291e-05
4.00299e-05
4.00307e-05
4.00317e-05
4.00333e-05
4.00356e-05
4.00366e-05
4.0034e-05
4.00372e-05
4.00535e-05
4.00603e-05
4.00442e-05
4.00465e-05
4.0046e-05
4.00448e-05
4.00435e-05
4.00424e-05
4.00413e-05
4.00402e-05
4.00391e-05
4.0038e-05
4.00369e-05
4.00359e-05
4.00348e-05
4.00337e-05
4.00328e-05
4.00319e-05
4.00311e-05
4.00304e-05
4.00297e-05
4.00292e-05
4.00288e-05
4.00284e-05
4.0028e-05
4.00275e-05
4.00271e-05
4.00269e-05
4.00268e-05
4.00269e-05
4.00272e-05
4.00277e-05
4.00283e-05
4.0029e-05
4.003e-05
4.00309e-05
4.0032e-05
4.00334e-05
4.0035e-05
4.00362e-05
4.00366e-05
4.00384e-05
4.00426e-05
4.00439e-05
4.00457e-05
4.00449e-05
4.00436e-05
4.00424e-05
4.00413e-05
4.00404e-05
4.00394e-05
4.00385e-05
4.00375e-05
4.00366e-05
4.00356e-05
4.00346e-05
4.00337e-05
4.00327e-05
4.00318e-05
4.00309e-05
4.00301e-05
4.00294e-05
4.00287e-05
4.00282e-05
4.00277e-05
4.00271e-05
4.00267e-05
4.00266e-05
4.00265e-05
4.00266e-05
4.00269e-05
4.00272e-05
4.00277e-05
4.00282e-05
4.00288e-05
4.00295e-05
4.00303e-05
4.00311e-05
4.00321e-05
4.00331e-05
4.00343e-05
4.00353e-05
4.00363e-05
4.00374e-05
4.00436e-05
4.00448e-05
4.00438e-05
4.00425e-05
4.00414e-05
4.00404e-05
4.00395e-05
4.00388e-05
4.0038e-05
4.00373e-05
4.00365e-05
4.00357e-05
4.00348e-05
4.0034e-05
4.00331e-05
4.00322e-05
4.00314e-05
4.00305e-05
4.00297e-05
4.00289e-05
4.00282e-05
4.00275e-05
4.00271e-05
4.00267e-05
4.00265e-05
4.00264e-05
4.00265e-05
4.00266e-05
4.00268e-05
4.00271e-05
4.00275e-05
4.00279e-05
4.00284e-05
4.0029e-05
4.00296e-05
4.00303e-05
4.0031e-05
4.00318e-05
4.00326e-05
4.00335e-05
4.00343e-05
4.0043e-05
4.00438e-05
4.00427e-05
4.00415e-05
4.00404e-05
4.00395e-05
4.00388e-05
4.00382e-05
4.00376e-05
4.00371e-05
4.00365e-05
4.00359e-05
4.00352e-05
4.00345e-05
4.00338e-05
4.0033e-05
4.00322e-05
4.00314e-05
4.00306e-05
4.00298e-05
4.0029e-05
4.00284e-05
4.00278e-05
4.00274e-05
4.00271e-05
4.00268e-05
4.00267e-05
4.00266e-05
4.00266e-05
4.00267e-05
4.00268e-05
4.0027e-05
4.00272e-05
4.00275e-05
4.00279e-05
4.00283e-05
4.00288e-05
4.00294e-05
4.00301e-05
4.0031e-05
4.00318e-05
4.00423e-05
4.00428e-05
4.00418e-05
4.00406e-05
4.00396e-05
4.00388e-05
4.00381e-05
4.00376e-05
4.00372e-05
4.00368e-05
4.00365e-05
4.00361e-05
4.00356e-05
4.00351e-05
4.00346e-05
4.00339e-05
4.00332e-05
4.00325e-05
4.00318e-05
4.0031e-05
4.00302e-05
4.00295e-05
4.00289e-05
4.00283e-05
4.00279e-05
4.00275e-05
4.00271e-05
4.00269e-05
4.00267e-05
4.00265e-05
4.00265e-05
4.00264e-05
4.00265e-05
4.00266e-05
4.00268e-05
4.0027e-05
4.00275e-05
4.0028e-05
4.00287e-05
4.00297e-05
4.00308e-05
4.00415e-05
4.00419e-05
4.0041e-05
4.004e-05
4.00391e-05
4.00384e-05
4.00378e-05
4.00373e-05
4.00369e-05
4.00366e-05
4.00364e-05
4.00362e-05
4.00359e-05
4.00356e-05
4.00353e-05
4.00348e-05
4.00343e-05
4.00337e-05
4.00331e-05
4.00324e-05
4.00316e-05
4.00309e-05
4.00302e-05
4.00296e-05
4.0029e-05
4.00284e-05
4.00279e-05
4.00275e-05
4.00271e-05
4.00267e-05
4.00264e-05
4.00262e-05
4.0026e-05
4.0026e-05
4.00261e-05
4.00263e-05
4.00267e-05
4.00273e-05
4.00282e-05
4.00293e-05
4.00307e-05
4.00406e-05
4.00409e-05
4.00403e-05
4.00395e-05
4.00389e-05
4.00383e-05
4.00377e-05
4.00373e-05
4.00369e-05
4.00367e-05
4.00365e-05
4.00363e-05
4.00362e-05
4.0036e-05
4.00359e-05
4.00356e-05
4.00353e-05
4.00349e-05
4.00344e-05
4.00338e-05
4.00331e-05
4.00324e-05
4.00317e-05
4.0031e-05
4.00304e-05
4.00297e-05
4.0029e-05
4.00284e-05
4.00278e-05
4.00272e-05
4.00267e-05
4.00263e-05
4.0026e-05
4.00259e-05
4.00259e-05
4.00261e-05
4.00266e-05
4.00273e-05
4.00282e-05
4.00293e-05
4.00307e-05
4.00396e-05
4.00398e-05
4.00394e-05
4.00391e-05
4.00387e-05
4.00384e-05
4.0038e-05
4.00376e-05
4.00373e-05
4.0037e-05
4.00368e-05
4.00366e-05
4.00365e-05
4.00364e-05
4.00363e-05
4.00362e-05
4.0036e-05
4.00358e-05
4.00355e-05
4.00351e-05
4.00346e-05
4.0034e-05
4.00333e-05
4.00327e-05
4.00319e-05
4.00312e-05
4.00304e-05
4.00296e-05
4.00289e-05
4.00282e-05
4.00274e-05
4.00269e-05
4.00264e-05
4.00262e-05
4.00262e-05
4.00264e-05
4.00269e-05
4.00275e-05
4.00284e-05
4.00294e-05
4.00307e-05
4.00386e-05
4.00386e-05
4.00384e-05
4.00384e-05
4.00384e-05
4.00384e-05
4.00383e-05
4.00381e-05
4.00378e-05
4.00376e-05
4.00373e-05
4.00372e-05
4.0037e-05
4.00369e-05
4.00368e-05
4.00368e-05
4.00367e-05
4.00366e-05
4.00364e-05
4.00361e-05
4.00358e-05
4.00354e-05
4.00348e-05
4.00342e-05
4.00336e-05
4.00328e-05
4.0032e-05
4.00311e-05
4.00302e-05
4.00294e-05
4.00285e-05
4.00278e-05
4.00273e-05
4.0027e-05
4.00269e-05
4.0027e-05
4.00274e-05
4.0028e-05
4.00288e-05
4.00296e-05
4.00307e-05
4.00375e-05
4.00374e-05
4.00373e-05
4.00375e-05
4.00379e-05
4.00382e-05
4.00384e-05
4.00385e-05
4.00384e-05
4.00383e-05
4.00381e-05
4.00379e-05
4.00377e-05
4.00376e-05
4.00375e-05
4.00374e-05
4.00373e-05
4.00372e-05
4.00371e-05
4.0037e-05
4.00368e-05
4.00365e-05
4.00361e-05
4.00356e-05
4.00351e-05
4.00344e-05
4.00336e-05
4.00327e-05
4.00318e-05
4.00308e-05
4.003e-05
4.00291e-05
4.00284e-05
4.0028e-05
4.00279e-05
4.00279e-05
4.00282e-05
4.00286e-05
4.00292e-05
4.00299e-05
4.00308e-05
4.00365e-05
4.00362e-05
4.0036e-05
4.00363e-05
4.00369e-05
4.00375e-05
4.0038e-05
4.00384e-05
4.00386e-05
4.00387e-05
4.00387e-05
4.00386e-05
4.00385e-05
4.00383e-05
4.00382e-05
4.0038e-05
4.00379e-05
4.00379e-05
4.00378e-05
4.00377e-05
4.00375e-05
4.00373e-05
4.00371e-05
4.00367e-05
4.00363e-05
4.00357e-05
4.0035e-05
4.00342e-05
4.00333e-05
4.00324e-05
4.00315e-05
4.00305e-05
4.00298e-05
4.00293e-05
4.0029e-05
4.00289e-05
4.0029e-05
4.00293e-05
4.00297e-05
4.00302e-05
4.00309e-05
4.00354e-05
4.00349e-05
4.00347e-05
4.0035e-05
4.00357e-05
4.00364e-05
4.00371e-05
4.00378e-05
4.00383e-05
4.00387e-05
4.00389e-05
4.0039e-05
4.0039e-05
4.00389e-05
4.00388e-05
4.00387e-05
4.00386e-05
4.00385e-05
4.00384e-05
4.00382e-05
4.00381e-05
4.0038e-05
4.00378e-05
4.00376e-05
4.00372e-05
4.00368e-05
4.00362e-05
4.00355e-05
4.00347e-05
4.00338e-05
4.00329e-05
4.00319e-05
4.00312e-05
4.00306e-05
4.00302e-05
4.003e-05
4.003e-05
4.003e-05
4.00303e-05
4.00306e-05
4.00311e-05
4.00343e-05
4.00338e-05
4.00335e-05
4.00337e-05
4.00343e-05
4.0035e-05
4.00358e-05
4.00366e-05
4.00374e-05
4.0038e-05
4.00385e-05
4.00388e-05
4.00391e-05
4.00392e-05
4.00392e-05
4.00392e-05
4.00391e-05
4.0039e-05
4.00389e-05
4.00387e-05
4.00386e-05
4.00385e-05
4.00383e-05
4.00381e-05
4.00378e-05
4.00375e-05
4.0037e-05
4.00364e-05
4.00357e-05
4.00349e-05
4.00341e-05
4.00333e-05
4.00324e-05
4.00318e-05
4.00314e-05
4.00311e-05
4.00309e-05
4.00308e-05
4.00309e-05
4.0031e-05
4.00313e-05
4.00331e-05
4.00327e-05
4.00324e-05
4.00325e-05
4.00329e-05
4.00336e-05
4.00344e-05
4.00352e-05
4.0036e-05
4.00368e-05
4.00375e-05
4.00381e-05
4.00385e-05
4.00389e-05
4.00391e-05
4.00392e-05
4.00393e-05
4.00392e-05
4.00392e-05
4.00391e-05
4.00389e-05
4.00388e-05
4.00386e-05
4.00384e-05
4.00382e-05
4.00379e-05
4.00375e-05
4.00371e-05
4.00365e-05
4.00358e-05
4.00351e-05
4.00343e-05
4.00335e-05
4.00329e-05
4.00324e-05
4.0032e-05
4.00317e-05
4.00315e-05
4.00314e-05
4.00314e-05
4.00315e-05
4.00319e-05
4.00316e-05
4.00313e-05
4.00314e-05
4.00317e-05
4.00322e-05
4.00329e-05
4.00336e-05
4.00344e-05
4.00352e-05
4.0036e-05
4.00367e-05
4.00374e-05
4.00379e-05
4.00384e-05
4.00387e-05
4.00389e-05
4.00391e-05
4.00391e-05
4.00391e-05
4.0039e-05
4.00389e-05
4.00387e-05
4.00385e-05
4.00383e-05
4.0038e-05
4.00377e-05
4.00374e-05
4.00369e-05
4.00364e-05
4.00357e-05
4.00351e-05
4.00343e-05
4.00336e-05
4.00331e-05
4.00327e-05
4.00323e-05
4.0032e-05
4.00318e-05
4.00317e-05
4.00317e-05
4.00306e-05
4.00304e-05
4.00303e-05
4.00303e-05
4.00306e-05
4.0031e-05
4.00314e-05
4.0032e-05
4.00327e-05
4.00334e-05
4.00342e-05
4.0035e-05
4.00358e-05
4.00365e-05
4.00371e-05
4.00376e-05
4.0038e-05
4.00383e-05
4.00385e-05
4.00386e-05
4.00387e-05
4.00386e-05
4.00385e-05
4.00384e-05
4.00382e-05
4.00379e-05
4.00377e-05
4.00373e-05
4.0037e-05
4.00366e-05
4.00361e-05
4.00355e-05
4.00348e-05
4.00341e-05
4.00336e-05
4.00331e-05
4.00327e-05
4.00323e-05
4.00321e-05
4.00318e-05
4.00317e-05
4.00292e-05
4.00292e-05
4.00292e-05
4.00293e-05
4.00295e-05
4.00297e-05
4.00301e-05
4.00305e-05
4.00311e-05
4.00317e-05
4.00323e-05
4.00331e-05
4.00338e-05
4.00346e-05
4.00353e-05
4.0036e-05
4.00365e-05
4.0037e-05
4.00374e-05
4.00376e-05
4.00378e-05
4.00379e-05
4.00379e-05
4.00378e-05
4.00377e-05
4.00375e-05
4.00373e-05
4.0037e-05
4.00367e-05
4.00364e-05
4.0036e-05
4.00355e-05
4.0035e-05
4.00343e-05
4.00337e-05
4.00332e-05
4.00328e-05
4.00324e-05
4.0032e-05
4.00317e-05
4.00315e-05
4.00277e-05
4.00279e-05
4.0028e-05
4.00281e-05
4.00283e-05
4.00285e-05
4.00287e-05
4.0029e-05
4.00294e-05
4.00299e-05
4.00305e-05
4.00311e-05
4.00318e-05
4.00325e-05
4.00332e-05
4.00339e-05
4.00346e-05
4.00352e-05
4.00357e-05
4.00361e-05
4.00365e-05
4.00367e-05
4.00368e-05
4.00368e-05
4.00368e-05
4.00367e-05
4.00365e-05
4.00363e-05
4.00361e-05
4.00358e-05
4.00355e-05
4.00351e-05
4.00347e-05
4.00341e-05
4.00336e-05
4.0033e-05
4.00326e-05
4.00321e-05
4.00318e-05
4.00314e-05
4.00312e-05
4.0026e-05
4.00263e-05
4.00265e-05
4.00267e-05
4.00268e-05
4.0027e-05
4.00272e-05
4.00275e-05
4.00278e-05
4.00281e-05
4.00286e-05
4.00291e-05
4.00297e-05
4.00303e-05
4.0031e-05
4.00317e-05
4.00324e-05
4.0033e-05
4.00336e-05
4.00341e-05
4.00346e-05
4.00349e-05
4.00352e-05
4.00354e-05
4.00354e-05
4.00354e-05
4.00354e-05
4.00353e-05
4.00351e-05
4.00349e-05
4.00346e-05
4.00343e-05
4.0034e-05
4.00336e-05
4.00331e-05
4.00326e-05
4.00321e-05
4.00317e-05
4.00313e-05
4.00309e-05
4.00306e-05
4.00241e-05
4.00245e-05
4.00247e-05
4.00249e-05
4.00251e-05
4.00253e-05
4.00255e-05
4.00257e-05
4.0026e-05
4.00263e-05
4.00266e-05
4.00271e-05
4.00275e-05
4.00281e-05
4.00286e-05
4.00293e-05
4.00299e-05
4.00305e-05
4.00312e-05
4.00317e-05
4.00323e-05
4.00327e-05
4.00331e-05
4.00334e-05
4.00336e-05
4.00337e-05
4.00337e-05
4.00337e-05
4.00336e-05
4.00335e-05
4.00333e-05
4.0033e-05
4.00328e-05
4.00325e-05
4.00322e-05
4.00318e-05
4.00314e-05
4.0031e-05
4.00306e-05
4.00302e-05
4.00299e-05
4.00222e-05
4.00224e-05
4.00226e-05
4.00228e-05
4.0023e-05
4.00232e-05
4.00234e-05
4.00236e-05
4.00239e-05
4.00242e-05
4.00245e-05
4.00249e-05
4.00252e-05
4.00257e-05
4.00262e-05
4.00267e-05
4.00273e-05
4.00278e-05
4.00284e-05
4.0029e-05
4.00295e-05
4.003e-05
4.00305e-05
4.00308e-05
4.00311e-05
4.00314e-05
4.00315e-05
4.00316e-05
4.00316e-05
4.00315e-05
4.00314e-05
4.00313e-05
4.00311e-05
4.00309e-05
4.00307e-05
4.00304e-05
4.00302e-05
4.00299e-05
4.00296e-05
4.00293e-05
4.0029e-05
4.00201e-05
4.00203e-05
4.00204e-05
4.00205e-05
4.00206e-05
4.00208e-05
4.0021e-05
4.00212e-05
4.00215e-05
4.00218e-05
4.00221e-05
4.00224e-05
4.00228e-05
4.00231e-05
4.00235e-05
4.0024e-05
4.00244e-05
4.00249e-05
4.00255e-05
4.0026e-05
4.00265e-05
4.0027e-05
4.00274e-05
4.00278e-05
4.00282e-05
4.00285e-05
4.00287e-05
4.00289e-05
4.0029e-05
4.0029e-05
4.0029e-05
4.0029e-05
4.00289e-05
4.00288e-05
4.00286e-05
4.00284e-05
4.00283e-05
4.00281e-05
4.00279e-05
4.00276e-05
4.00274e-05
4.00179e-05
4.0018e-05
4.0018e-05
4.0018e-05
4.0018e-05
4.00182e-05
4.00183e-05
4.00186e-05
4.00188e-05
4.00191e-05
4.00194e-05
4.00197e-05
4.002e-05
4.00203e-05
4.00206e-05
4.0021e-05
4.00214e-05
4.00218e-05
4.00222e-05
4.00226e-05
4.00231e-05
4.00235e-05
4.0024e-05
4.00244e-05
4.00247e-05
4.00251e-05
4.00254e-05
4.00256e-05
4.00258e-05
4.00259e-05
4.0026e-05
4.0026e-05
4.0026e-05
4.0026e-05
4.00259e-05
4.00258e-05
4.00258e-05
4.00257e-05
4.00256e-05
4.00255e-05
4.00253e-05
4.00156e-05
4.00156e-05
4.00155e-05
4.00154e-05
4.00154e-05
4.00154e-05
4.00155e-05
4.00157e-05
4.00159e-05
4.00161e-05
4.00163e-05
4.00166e-05
4.00168e-05
4.00171e-05
4.00174e-05
4.00177e-05
4.0018e-05
4.00183e-05
4.00186e-05
4.00189e-05
4.00193e-05
4.00197e-05
4.00201e-05
4.00204e-05
4.00208e-05
4.00211e-05
4.00214e-05
4.00217e-05
4.00219e-05
4.00221e-05
4.00222e-05
4.00223e-05
4.00224e-05
4.00224e-05
4.00224e-05
4.00224e-05
4.00223e-05
4.00223e-05
4.00223e-05
4.00222e-05
4.00221e-05
4.00132e-05
4.00131e-05
4.00129e-05
4.00127e-05
4.00126e-05
4.00126e-05
4.00126e-05
4.00127e-05
4.00128e-05
4.0013e-05
4.00131e-05
4.00133e-05
4.00134e-05
4.00136e-05
4.00138e-05
4.00139e-05
4.00141e-05
4.00144e-05
4.00146e-05
4.00148e-05
4.00151e-05
4.00153e-05
4.00156e-05
4.00159e-05
4.00162e-05
4.00164e-05
4.00167e-05
4.0017e-05
4.00172e-05
4.00174e-05
4.00176e-05
4.00178e-05
4.00179e-05
4.00181e-05
4.00182e-05
4.00183e-05
4.00183e-05
4.00184e-05
4.00185e-05
4.00186e-05
4.00186e-05
4.00106e-05
4.00104e-05
4.00102e-05
4.001e-05
4.00099e-05
4.00098e-05
4.00097e-05
4.00097e-05
4.00097e-05
4.00097e-05
4.00098e-05
4.00098e-05
4.00098e-05
4.00099e-05
4.00099e-05
4.00099e-05
4.001e-05
4.001e-05
4.00101e-05
4.00102e-05
4.00103e-05
4.00104e-05
4.00106e-05
4.00108e-05
4.0011e-05
4.00112e-05
4.00114e-05
4.00116e-05
4.00119e-05
4.00121e-05
4.00122e-05
4.00124e-05
4.00125e-05
4.00126e-05
4.00127e-05
4.00128e-05
4.00128e-05
4.00128e-05
4.00129e-05
4.00129e-05
4.00129e-05
4.00078e-05
4.00076e-05
4.00074e-05
4.00072e-05
4.00071e-05
4.0007e-05
4.00069e-05
4.00068e-05
4.00067e-05
4.00066e-05
4.00065e-05
4.00064e-05
4.00063e-05
4.00061e-05
4.0006e-05
4.00058e-05
4.00057e-05
4.00056e-05
4.00055e-05
4.00054e-05
4.00053e-05
4.00052e-05
4.00052e-05
4.00052e-05
4.00052e-05
4.00052e-05
4.00053e-05
4.00054e-05
4.00055e-05
4.00056e-05
4.00057e-05
4.00059e-05
4.0006e-05
4.00062e-05
4.00064e-05
4.00066e-05
4.00068e-05
4.0007e-05
4.00072e-05
4.00075e-05
4.00077e-05
4.00048e-05
4.00047e-05
4.00046e-05
4.00044e-05
4.00043e-05
4.00042e-05
4.00041e-05
4.0004e-05
4.00039e-05
4.00037e-05
4.00035e-05
4.00032e-05
4.00029e-05
4.00027e-05
4.00024e-05
4.00023e-05
4.00023e-05
4.00023e-05
4.00024e-05
4.00025e-05
4.00026e-05
4.00028e-05
4.0003e-05
4.00033e-05
4.00035e-05
4.00037e-05
4.0004e-05
4.00042e-05
4.00045e-05
4.00047e-05
4.00049e-05
4.00051e-05
4.00054e-05
4.00056e-05
4.00058e-05
4.00059e-05
4.00061e-05
4.00063e-05
4.00064e-05
4.00066e-05
4.00067e-05
4.00017e-05
4.00016e-05
4.00016e-05
4.00015e-05
4.00015e-05
4.00015e-05
4.00014e-05
4.00014e-05
4.00013e-05
4.00012e-05
4.00011e-05
4.00008e-05
4.00006e-05
4.00005e-05
4.00007e-05
4.00011e-05
4.00017e-05
4.00024e-05
4.00032e-05
4.00041e-05
4.0005e-05
4.00061e-05
4.00072e-05
4.00084e-05
4.00095e-05
4.00107e-05
4.00119e-05
4.00129e-05
4.00139e-05
4.00148e-05
4.00155e-05
4.00161e-05
4.00166e-05
4.00171e-05
4.00174e-05
4.00176e-05
4.00178e-05
4.00179e-05
4.0018e-05
4.0018e-05
4.00179e-05
0.00826361
0.0213646
0.0295189
0.0288872
0.0221291
0.0126944
0.00523224
0.00168848
0.000506143
0.000169897
7.59785e-05
5.15982e-05
4.80553e-05
4.71547e-05
4.52211e-05
4.2904e-05
3.26784e-05
1.60246e-05
1.49315e-05
1.22437e-05
1.68344e-05
6.39306e-06
6.39062e-06
1.51944e-05
2.78947e-05
3.8313e-05
4.64397e-05
5.0828e-05
4.92201e-05
4.55875e-05
4.1768e-05
3.9523e-05
3.93337e-05
4.01739e-05
4.09635e-05
4.12712e-05
4.12225e-05
4.10777e-05
4.0984e-05
4.0957e-05
4.09543e-05
4.09451e-05
4.09231e-05
4.08936e-05
4.08653e-05
4.08491e-05
4.08319e-05
4.08131e-05
4.07963e-05
4.07855e-05
4.07802e-05
4.07787e-05
4.07806e-05
4.07858e-05
4.0794e-05
4.08042e-05
4.08146e-05
4.08366e-05
4.08424e-05
4.08445e-05
4.08436e-05
4.08382e-05
4.08271e-05
4.081e-05
4.07868e-05
4.0758e-05
4.07244e-05
4.06866e-05
4.06455e-05
4.06019e-05
4.05571e-05
4.05114e-05
4.047e-05
4.04094e-05
0.0109787
0.0251959
0.0343384
0.0354672
0.0304186
0.0208998
0.0106642
0.00399981
0.00122199
0.000370067
0.000138306
7.57864e-05
5.59002e-05
4.40969e-05
3.71366e-05
2.42279e-05
8.10394e-06
8.51257e-07
2.92555e-05
5.2074e-05
5.96828e-05
5.53235e-05
3.91701e-05
6.48629e-07
6.83858e-06
9.40337e-06
1.23498e-06
1.99308e-05
3.36892e-05
4.38942e-05
4.75767e-05
4.7636e-05
4.4881e-05
4.18658e-05
4.02715e-05
4.01688e-05
4.06684e-05
4.1085e-05
4.12262e-05
4.11835e-05
4.10899e-05
4.10206e-05
4.09858e-05
4.09683e-05
4.09478e-05
4.0948e-05
4.094e-05
4.09228e-05
4.09002e-05
4.08833e-05
4.08764e-05
4.08773e-05
4.08823e-05
4.08897e-05
4.08987e-05
4.09086e-05
4.09169e-05
4.09192e-05
4.09133e-05
4.09054e-05
4.08963e-05
4.08842e-05
4.08672e-05
4.08439e-05
4.08146e-05
4.07796e-05
4.074e-05
4.06967e-05
4.06507e-05
4.0603e-05
4.0555e-05
4.05072e-05
4.04647e-05
4.04054e-05
0.0125795
0.0278407
0.0383162
0.0412373
0.0383142
0.0303426
0.0191911
0.00915138
0.00331331
0.00104133
0.000339676
0.000137685
6.43671e-05
3.43112e-05
2.1407e-05
1.15898e-05
1.34681e-05
0.000107692
0.000122126
0.000233358
0.000263279
0.000253835
0.000176922
7.66969e-05
0.000206694
0.000140503
1.17504e-05
2.86613e-05
8.46795e-06
1.31845e-05
2.70413e-05
3.40549e-05
4.14199e-05
4.57905e-05
4.6455e-05
4.4317e-05
4.16845e-05
4.04547e-05
4.03999e-05
4.08105e-05
4.11491e-05
4.12534e-05
4.11928e-05
4.10921e-05
4.10115e-05
4.09929e-05
4.10119e-05
4.10312e-05
4.10263e-05
4.10057e-05
4.09874e-05
4.09812e-05
4.09847e-05
4.09925e-05
4.10012e-05
4.10093e-05
4.10165e-05
4.10063e-05
4.09908e-05
4.09724e-05
4.09526e-05
4.09314e-05
4.09068e-05
4.08769e-05
4.08412e-05
4.08e-05
4.07545e-05
4.07058e-05
4.06552e-05
4.06039e-05
4.05534e-05
4.05042e-05
4.04612e-05
4.04036e-05
0.0135798
0.0293645
0.0410391
0.045732
0.0449744
0.0395262
0.0295851
0.0178757
0.00834388
0.00305224
0.000945608
0.000295088
0.000100943
4.25785e-05
7.02099e-06
4.71573e-05
5.48152e-05
0.000507935
0.00105256
0.00145774
0.00167104
0.00167974
0.00154734
0.00129972
0.000972042
0.000663067
0.000376219
0.000110662
0.000239134
0.000123887
4.79188e-05
8.22348e-06
1.03068e-05
1.35495e-05
3.25769e-05
4.2225e-05
4.69009e-05
4.65998e-05
4.37067e-05
4.13811e-05
4.04488e-05
4.05356e-05
4.09509e-05
4.12438e-05
4.12968e-05
4.1211e-05
4.11268e-05
4.11018e-05
4.11091e-05
4.11126e-05
4.11028e-05
4.10911e-05
4.10861e-05
4.10882e-05
4.10936e-05
4.10981e-05
4.11019e-05
4.10924e-05
4.10731e-05
4.10463e-05
4.10149e-05
4.09817e-05
4.0947e-05
4.09092e-05
4.08668e-05
4.08195e-05
4.07684e-05
4.07147e-05
4.066e-05
4.06058e-05
4.05534e-05
4.05033e-05
4.04601e-05
4.04039e-05
0.0157665
0.030482
0.042445
0.0487969
0.0499478
0.047195
0.0400072
0.0291118
0.0175463
0.00859602
0.00336955
0.00101277
0.000150282
0.000261151
2.74693e-06
0.000214366
0.00101345
0.00226186
0.00315584
0.00377115
0.00416461
0.00431184
0.00425314
0.00400397
0.00359161
0.00305949
0.00244688
0.00179041
0.00112317
0.000571453
0.000195307
0.000312624
0.000158085
1.07677e-05
4.65902e-06
1.05873e-05
1.4598e-05
3.11168e-05
4.1656e-05
4.67869e-05
4.58034e-05
4.31918e-05
4.1205e-05
4.04512e-05
4.05924e-05
4.09785e-05
4.12411e-05
4.13305e-05
4.13179e-05
4.12721e-05
4.12273e-05
4.11981e-05
4.1186e-05
4.11853e-05
4.11884e-05
4.1189e-05
4.1186e-05
4.11758e-05
4.11558e-05
4.11248e-05
4.10843e-05
4.10384e-05
4.09909e-05
4.09426e-05
4.08922e-05
4.08388e-05
4.07825e-05
4.07244e-05
4.06662e-05
4.06094e-05
4.05555e-05
4.05049e-05
4.04616e-05
4.04068e-05
0.016391
0.0301113
0.0433714
0.0505882
0.0531505
0.0526122
0.0486743
0.0404864
0.0295654
0.018808
0.0103994
0.00509708
0.0023388
0.00127934
0.00129343
0.00167865
0.003211
0.00480908
0.00605365
0.00690234
0.00744831
0.00771972
0.00776351
0.00759797
0.00724276
0.00673463
0.00607693
0.00528637
0.00438043
0.00339002
0.00241994
0.00146816
0.000750602
0.000260872
0.000340739
0.000159464
7.64087e-06
2.40584e-06
1.62241e-05
2.20035e-05
3.25586e-05
4.20107e-05
4.55927e-05
4.48361e-05
4.26382e-05
4.0946e-05
4.03786e-05
4.05821e-05
4.10241e-05
4.13582e-05
4.14814e-05
4.14513e-05
4.13696e-05
4.1306e-05
4.12781e-05
4.12716e-05
4.12678e-05
4.12578e-05
4.12376e-05
4.12049e-05
4.1159e-05
4.11029e-05
4.10422e-05
4.09809e-05
4.09201e-05
4.08593e-05
4.07977e-05
4.07357e-05
4.06746e-05
4.06157e-05
4.05606e-05
4.05096e-05
4.04661e-05
4.04122e-05
0.0143212
0.0264638
0.0406746
0.0504873
0.0547168
0.0557846
0.0543572
0.0497227
0.0414836
0.0314676
0.0219132
0.0144185
0.00941945
0.00668026
0.00566874
0.00557193
0.0068397
0.00836084
0.00967584
0.0106263
0.0112439
0.0115712
0.0116674
0.0115616
0.0112766
0.0108466
0.0102752
0.00956552
0.00871389
0.00771258
0.00660286
0.00533605
0.00401594
0.00274751
0.00159483
0.000760933
0.000193452
0.000332468
0.000154291
4.0018e-05
3.78773e-06
1.62888e-05
2.67393e-05
3.62407e-05
4.42529e-05
4.66068e-05
4.50913e-05
4.26252e-05
4.09861e-05
4.05058e-05
4.07713e-05
4.12227e-05
4.15128e-05
4.15786e-05
4.1515e-05
4.14272e-05
4.13642e-05
4.13283e-05
4.13039e-05
4.12751e-05
4.12321e-05
4.11734e-05
4.11034e-05
4.10291e-05
4.09556e-05