/*--------------------------------*- C++ -*----------------------------------*\
| =========                 |                                                 |
| \\      /  F ield         | OpenFOAM: The Open Source CFD Toolbox           |
|  \\    /   O peration     | Version:  2312                                  |
|   \\  /    A nd           | Website:  www.openfoam.com                      |
|    \\/     M anipulation  |                                                 |
\*---------------------------------------------------------------------------*/
FoamFile
{
    version     2.0;
    format      ascii;
    arch        "LSB;label=32;scalar=64";
    class       volScalarField;
    location    "50";
    object      p;
}
// * * * * * * * * * * * * * * * * * * * * * * * * * * * * * * * * * * * * * //

dimensions      [0 2 -2 0 0 0 0];

internalField   nonuniform List<scalar> 
11040
(
-207.344
-569.37
-662.768
-619.136
-573.158
-552.255
-540.409
-521.742
-492.001
-456.08
-422.905
-396.992
-376.69
-358.844
-341.677
-324.377
-306.469
-287.464
-267.532
-247.004
-226.284
-205.936
-186.732
-168.341
-150.017
-131.257
-113.132
-97.2709
-84.4909
-73.3515
-62.5659
-51.5895
-40.871
-31.0717
-23.8057
-20.3373
-21.4555
-23.0719
-19.1684
-10.714
-4.70452
-75.8865
-322.957
-460.657
-505.753
-518.137
-526.332
-529.119
-519.077
-494.408
-460.603
-427.135
-399.786
-378.221
-359.688
-342.218
-324.808
-306.893
-287.914
-267.959
-247.361
-226.591
-206.295
-187.177
-168.869
-150.63
-131.936
-113.791
-97.7999
-84.8496
-73.6322
-62.8671
-51.9364
-41.2474
-31.4217
-24.0028
-20.3377
-21.4049
-23.2671
-19.7741
-11.2385
-7.05181
-3.70095
-203.136
-372.594
-460.958
-490.129
-498.888
-501.88
-496.203
-477.918
-449.862
-419.935
-394.239
-373.583
-355.86
-339.177
-322.518
-305.293
-286.869
-267.229
-246.762
-226.08
-206.011
-187.194
-169.182
-151.148
-132.494
-114.181
-97.924
-84.8228
-73.7203
-63.1904
-52.3971
-41.6816
-31.7117
-24.0066
-20.068
-21.0444
-23.3015
-20.4383
-11.9598
-7.64057
31.7843
-110.786
-258.54
-363.76
-418.441
-444.488
-458.289
-461.968
-453.303
-433.871
-409.725
-386.838
-367.34
-350.305
-334.284
-318.386
-301.992
-284.355
-265.255
-245.068
-224.58
-204.906
-186.672
-169.271
-151.69
-133.138
-114.548
-97.8958
-84.6469
-73.8458
-63.7558
-53.1427
-42.2585
-31.9989
-23.971
-19.8371
-20.7397
-23.2581
-21.0151
-12.6977
-7.18963
49.0088
-52.9745
-171.13
-276.919
-350.097
-393.4
-418.205
-430.114
-429.489
-417.451
-398.56
-378.401
-360.057
-343.652
-328.204
-312.956
-297.342
-280.583
-262.222
-242.493
-222.232
-202.914
-185.32
-168.724
-151.891
-133.742
-114.998
-97.8498
-84.32
-73.8866
-64.4809
-54.2504
-43.1772
-32.4863
-24.1013
-19.8562
-20.6648
-23.1905
-21.3446
-13.192
-6.28501
54.5024
-19.5343
-108.124
-199.327
-275.971
-330.315
-365.634
-386.685
-395.161
-392.05
-380.539
-365.31
-349.787
-335.029
-320.702
-306.371
-291.682
-275.979
-258.632
-239.596
-219.601
-200.416
-183.182
-167.316
-151.505
-134.314
-115.921
-98.3586
-84.1547
-73.664
-64.9399
-55.4782
-44.5612
-33.4704
-24.5906
-20.1344
-20.7071
-22.9048
-21.1623
-13.1315
-5.18683
54.1763
-1.02826
-66.2679
-138.557
-208.311
-266.281
-309.556
-339.318
-356.838
-362.87
-359.402
-349.975
-337.975
-325.241
-312.192
-298.79
-284.95
-270.26
-254.065
-236.023
-216.568
-197.529
-180.43
-165.069
-150.32
-134.542
-117.206
-99.7085
-84.6526
-73.4389
-65.002
-56.6638
-46.6332
-35.5193
-25.9639
-20.7906
-20.6414
-22.1506
-20.259
-12.3635
-4.05503
50.5785
8.23628
-40.1635
-95.1081
-152.832
-206.898
-252.494
-287.697
-312.212
-326.163
-330.533
-327.676
-320.432
-310.912
-300.083
-288.281
-275.692
-262.24
-247.474
-230.908
-212.597
-194.127
-177.241
-162.202
-148.321
-134.022
-118.213
-101.405
-85.7434
-73.3528
-64.5388
-57.3309
-49.1298
-39.0662
-29.0835
-22.443
-20.5113
-20.6148
-18.3799
-10.8508
-3.00872
45.3971
12.1395
-24.4762
-65.7849
-111.003
-156.885
-199.568
-236.115
-264.831
-284.896
-296.31
-300.24
-298.586
-293.213
-285.371
-275.739
-264.776
-252.74
-239.511
-224.663
-207.949
-190.529
-174.054
-159.153
-145.702
-132.549
-118.374
-102.872
-87.3315
-73.9206
-64.0828
-57.1924
-50.8611
-42.9424
-33.7002
-25.6919
-21.0409
-18.6811
-15.6523
-8.84033
-2.36112
39.5527
12.9085
-15.4378
-46.7319
-81.356
-118.078
-154.694
-188.747
-218.175
-241.468
-257.838
-267.472
-271.286
-270.547
-266.42
-259.746
-251.139
-241.05
-229.642
-216.701
-201.899
-185.983
-170.303
-155.633
-142.364
-129.949
-117.263
-103.522
-89.1103
-75.5881
-64.765
-57.2167
-51.595
-45.5745
-37.9766
-29.7951
-22.9463
-17.8292
-13.4714
-7.37209
-2.49695
33.645
11.9452
-10.4528
-34.5517
-61.0045
-89.5562
-119.224
-148.511
-175.751
-199.391
-218.246
-231.821
-240.241
-244.053
-244.015
-240.863
-235.19
-227.497
-218.112
-207.077
-194.212
-180.049
-165.602
-151.578
-138.633
-126.775
-115.303
-103.379
-90.7282
-78.1057
-66.9425
-58.4004
-52.2534
-46.9173
-40.705
-33.2827
-25.6469
-18.7248
-13.0287
-7.18999
-3.07722
28.0089
10.1144
-7.90147
-26.7976
-47.2061
-69.2335
-92.559
-116.452
-139.875
-161.628
-180.567
-195.91
-207.29
-214.663
-218.31
-218.642
-216.096
-211.093
-203.99
-195.013
-184.205
-172.054
-159.36
-146.645
-134.559
-123.416
-112.946
-102.512
-91.6299
-80.3967
-69.6323
-60.3938
-53.1999
-47.4268
-41.7863
-35.2859
-27.9939
-20.5229
-13.9464
-7.94132
-3.6716
22.8505
7.95328
-6.74144
-21.8068
-37.7739
-54.8459
-72.9859
-91.9098
-111.077
-129.733
-147.01
-162.171
-174.667
-184.132
-190.453
-193.704
-194.082
-191.834
-187.255
-180.615
-172.098
-162.218
-151.65
-140.751
-130.016
-119.801
-110.146
-100.722
-91.1289
-81.199
-71.2294
-61.91
-53.9135
-47.3394
-41.5944
-35.7903
-29.4269
-22.5457
-15.8898
-9.82278
-5.11292
18.2697
5.78541
-6.32578
-18.5026
-31.1698
-44.5311
-58.6468
-73.4452
-88.6844
-103.953
-118.692
-132.354
-144.437
-154.488
-162.192
-167.396
-170.076
-170.307
-168.243
-164.078
-158.015
-150.509
-142.152
-133.222
-124.03
-114.898
-105.981
-97.239
-88.4987
-79.5989
-70.5959
-61.8236
-53.7999
-46.8729
-40.9827
-35.6562
-30.3334
-24.6874
-18.8826
-13.3493
-8.63158
14.3026
3.79729
-6.25838
-16.205
-26.3751
-36.9451
-47.997
-59.5449
-71.4958
-83.6486
-95.6788
-107.236
-117.954
-127.447
-135.372
-141.477
-145.61
-147.702
-147.758
-145.85
-142.085
-136.789
-130.46
-123.328
-115.674
-107.715
-99.6972
-91.7231
-83.7919
-75.9075
-68.0431
-60.3765
-53.1489
-46.6975
-41.103
-36.274
-31.7913
-27.3307
-22.6858
-18.0674
-13.7696
10.969
2.1088
-6.28305
-14.474
-22.7196
-31.1651
-39.8878
-48.9299
-58.2633
-67.7996
-77.3604
-86.7458
-95.7207
-104.012
-111.335
-117.442
-122.127
-125.244
-126.7
-126.455
-124.517
-121.057
-116.452
-110.983
-104.845
-98.2936
-91.5208
-84.7411
-78.0364
-71.452
-65.0335
-58.8147
-52.9224
-47.475
-42.5979
-38.2573
-34.308
-30.4612
-26.5406
-22.4844
-18.4572
8.27277
0.796257
-6.22405
-13.0035
-19.7357
-26.5388
-33.479
-40.6033
-47.9091
-55.3619
-62.8642
-70.3076
-77.5491
-84.4118
-90.689
-96.1815
-100.697
-104.077
-106.196
-106.961
-106.329
-104.347
-101.316
-97.4403
-92.9733
-88.0711
-82.9548
-77.7501
-72.5864
-67.5182
-62.588
-57.7877
-53.1539
-48.6955
-44.4775
-40.4998
-36.7453
-33.074
-29.4038
-25.6589
-21.9206
6.21248
-0.154032
-6.09177
-11.7788
-17.3629
-22.9395
-28.5654
-34.2824
-40.0966
-45.9952
-51.9226
-57.818
-63.5953
-69.1431
-74.3216
-78.9892
-83.0002
-86.2206
-88.534
-89.8455
-90.0911
-89.2598
-87.5299
-85.1124
-82.1414
-78.7935
-75.1677
-71.3909
-67.5383
-63.6437
-59.7586
-55.8716
-52.0125
-48.1689
-44.3941
-40.7044
-37.1476
-33.6802
-30.3044
-26.9773
-23.7481
4.6738
-0.824165
-5.92626
-10.7804
-15.5013
-20.1677
-24.8294
-29.522
-34.2551
-39.0249
-43.7993
-48.5424
-53.2023
-57.7072
-61.9657
-65.8791
-69.3413
-72.2502
-74.5078
-76.0318
-76.7575
-76.6445
-75.8069
-74.3389
-72.3962
-70.0415
-67.3836
-64.4837
-61.4186
-58.2388
-54.9716
-51.6552
-48.3054
-44.9586
-41.6372
-38.3954
-35.2563
-32.243
-29.3507
-26.5886
-23.9616
3.5209
-1.28004
-5.71993
-9.92042
-13.9728
-17.943
-21.8761
-25.8016
-29.7303
-33.662
-37.5776
-41.4539
-45.2582
-48.9419
-52.4425
-55.6903
-58.6099
-61.1229
-63.1552
-64.6361
-65.5085
-65.7167
-65.3061
-64.3821
-62.9838
-61.2199
-59.1356
-56.8308
-54.3233
-51.7055
-49.0037
-46.2636
-43.5042
-40.7683
-38.0729
-35.465
-32.9598
-30.581
-28.3294
-26.2168
-24.2431
2.64734
-1.58395
-5.48468
-9.16014
-12.6786
-16.1011
-19.4644
-22.7963
-26.1048
-29.3932
-32.6477
-35.854
-38.989
-42.0191
-44.9004
-47.5827
-50.0124
-52.1298
-53.8811
-55.2051
-56.0606
-56.3811
-56.2151
-55.6001
-54.6124
-53.2927
-51.7172
-49.9375
-48.0229
-45.9914
-43.9067
-41.7933
-39.6842
-37.5946
-35.5561
-33.5846
-31.7052
-29.9153
-28.2296
-26.6379
-25.148
1.97879
-1.77528
-5.23157
-8.47336
-11.5587
-14.5377
-17.4473
-20.3075
-23.1293
-25.9135
-28.6536
-31.3376
-33.951
-36.4687
-38.8596
-41.0881
-43.1144
-44.8975
-46.3934
-47.5621
-48.3637
-48.7524
-48.7431
-48.3911
-47.7283
-46.813
-45.6899
-44.4066
-43.0034
-41.5088
-39.9641
-38.3875
-36.8068
-35.2327
-33.6897
-32.1854
-30.7361
-29.3343
-27.9894
-26.6908
-25.4452
1.46519
-1.88614
-4.96814
-7.8488
-10.5744
-13.1904
-15.7298
-18.2101
-20.6411
-23.0245
-25.3562
-27.6277
-29.8287
-31.9413
-33.9424
-35.8069
-37.5055
-39.0095
-40.286
-41.3062
-42.0404
-42.4458
-42.5446
-42.3654
-41.9521
-41.3295
-40.5397
-39.6058
-38.571
-37.4447
-36.2689
-35.0574
-33.8309
-32.5946
-31.3658
-30.1488
-28.9558
-27.7812
-26.6348
-25.5093
-24.4175
1.07069
-1.93707
-4.70156
-7.27659
-9.70051
-12.0141
-14.2475
-16.4162
-18.5286
-20.5877
-22.59
-24.5308
-26.4012
-28.1895
-29.8768
-31.4473
-32.8766
-34.1473
-35.2318
-36.113
-36.765
-37.1611
-37.3092
-37.2438
-36.9817
-36.5526
-35.9748
-35.278
-34.4826
-33.6188
-32.6938
-31.7328
-30.7465
-29.7459
-28.7369
-27.7318
-26.7351
-25.753
-24.7895
-23.8482
-22.9376
0.766747
-1.94491
-4.43655
-6.75096
-8.91835
-10.9773
-12.9544
-14.864
-16.7134
-18.5058
-20.2395
-21.9104
-23.5132
-25.0374
-26.4716
-27.8007
-29.011
-30.0851
-31.0086
-31.7635
-32.3379
-32.7036
-32.874
-32.8669
-32.704
-32.4002
-31.9792
-31.4604
-30.8607
-30.1992
-29.4813
-28.7254
-27.9405
-27.139
-26.3266
-25.5169
-24.7143
-23.9267
-23.158
-22.412
-21.697
0.53588
-1.92051
-4.17676
-6.26674
-8.21463
-10.0568
-11.8172
-13.5089
-15.1383
-16.7092
-18.2205
-19.6695
-21.0523
-22.361
-23.5871
-24.7194
-25.7483
-26.6608
-27.4476
-28.0954
-28.5969
-28.9289
-29.1015
-29.1338
-29.0373
-28.832
-28.5318
-28.1514
-27.7039
-27.1985
-26.6487
-26.0578
-25.4423
-24.8116
-24.1751
-23.5362
-22.9037
-22.2782
-21.67
-21.0763
-20.5105
0.360365
-1.87258
-3.92453
-5.81967
-7.57878
-9.23467
-10.8105
-12.3167
-13.7611
-15.1453
-16.4713
-17.7351
-18.9362
-20.0663
-21.1217
-22.0914
-22.9714
-23.7498
-24.423
-24.9789
-25.4156
-25.7125
-25.8833
-25.9385
-25.8933
-25.7583
-25.5465
-25.2667
-24.9302
-24.544
-24.1221
-23.6648
-23.186
-22.6938
-22.1954
-21.691
-21.1862
-20.6813
-20.1859
-19.6979
-19.2304
0.230934
-1.80761
-3.68075
-5.40656
-7.00165
-8.49729
-9.91396
-11.2622
-12.5479
-13.7749
-14.9434
-16.0529
-17.1007
-18.0837
-18.9957
-19.8326
-20.5876
-21.2565
-21.8329
-22.313
-22.6915
-22.9573
-23.118
-23.1863
-23.17
-23.0807
-22.927
-22.7197
-22.4677
-22.1781
-21.8614
-21.5158
-21.151
-20.7704
-20.3803
-19.9782
-19.5706
-19.1566
-18.7467
-18.3381
-17.9447
0.136395
-1.73023
-3.44664
-5.02377
-6.47633
-7.83251
-9.11202
-10.3237
-11.4739
-12.566
-13.6011
-14.5789
-15.4983
-16.3566
-17.1497
-17.8744
-18.526
-19.102
-19.5977
-20.0113
-20.3391
-20.5736
-20.721
-20.7912
-20.7924
-20.7319
-20.6214
-20.4676
-20.2799
-20.0651
-19.8266
-19.571
-19.2927
-18.9989
-18.6918
-18.375
-18.0465
-17.7112
-17.3716
-17.0324
-16.7009
0.0711575
-1.64468
-3.22209
-4.66894
-5.99596
-7.23118
-8.3907
-9.48488
-10.5175
-11.4942
-12.4142
-13.2804
-14.0896
-14.8429
-15.5347
-16.1657
-16.7297
-17.228
-17.6546
-18.0116
-18.2941
-18.4987
-18.6296
-18.6987
-18.7096
-18.6727
-18.593
-18.4803
-18.3381
-18.1754
-17.9928
-17.799
-17.5855
-17.3586
-17.1196
-16.8721
-16.6127
-16.3443
-16.068
-15.7881
-15.5111
0.0277715
-1.55346
-3.00819
-4.33903
-5.55615
-6.68434
-7.73987
-8.7306
-9.66218
-10.538
-11.3602
-12.129
-12.8453
-13.5073
-14.1145
-14.6641
-15.1556
-15.5865
-15.9568
-16.2642
-16.5098
-16.6865
-16.8036
-16.8665
-16.8829
-16.8573
-16.7984
-16.7097
-16.5989
-16.4718
-16.3315
-16.1834
-16.0211
-15.8485
-15.6655
-15.4746
-15.2713
-15.0581
-14.8344
-14.6041
-14.3721
0.00278053
-1.45965
-2.80459
-4.03284
-5.152
-6.18624
-7.14946
-8.0501
-8.89267
-9.68146
-10.4181
-11.1037
-11.7391
-12.3237
-12.8572
-13.3383
-13.7671
-14.1419
-14.4635
-14.73
-14.9435
-15.098
-15.2005
-15.2578
-15.2733
-15.2551
-15.2075
-15.1378
-15.0489
-14.9471
-14.8367
-14.7191
-14.5972
-14.4629
-14.3211
-14.171
-14.0139
-13.8452
-13.6685
-13.4803
-13.2896
-0.00902676
-1.36469
-2.61207
-3.74801
-4.78068
-5.7306
-6.61293
-7.43307
-8.19822
-8.9098
-9.57271
-10.1853
-10.7517
-11.2686
-11.7398
-12.1612
-12.5371
-12.8632
-13.1441
-13.3753
-13.5617
-13.6955
-13.7858
-13.8366
-13.8525
-13.8391
-13.8014
-13.7441
-13.6716
-13.5878
-13.4972
-13.4
-13.3008
-13.1918
-13.0778
-12.9576
-12.8335
-12.701
-12.5614
-12.4106
-12.2558
-0.00994561
-1.27079
-2.42989
-3.48386
-4.4383
-5.31395
-6.12325
-6.87306
-7.56831
-8.21315
-8.80967
-9.35998
-9.86453
-10.3248
-10.7401
-11.1122
-11.4404
-11.7269
-11.9707
-12.1741
-12.3363
-12.4549
-12.5357
-12.582
-12.5986
-12.5884
-12.5571
-12.5077
-12.4452
-12.3721
-12.2934
-12.2104
-12.1273
-12.0364
-11.9432
-11.8466
-11.7481
-11.643
-11.5324
-11.412
-11.2875
-0.00375765
-1.17876
-2.25901
-3.23837
-4.12309
-4.93181
-5.67611
-6.36274
-6.99624
-7.58113
-8.1195
-8.61396
-9.06505
-9.47479
-9.84262
-10.1709
-10.4589
-10.7097
-10.9224
-11.1005
-11.2431
-11.3495
-11.422
-11.467
-11.4826
-11.477
-11.4495
-11.4078
-11.352
-11.2885
-11.2199
-11.1482
-11.0768
-11.0009
-10.9236
-10.8435
-10.7627
-10.6768
-10.5868
-10.4879
-10.3853
0.00819034
-1.09054
-2.0988
-3.01142
-3.8328
-4.5807
-5.26677
-5.89627
-6.47485
-7.00593
-7.49274
-7.93731
-8.34117
-8.70601
-9.03218
-9.32188
-9.57497
-9.79457
-9.98066
-10.1363
-10.2618
-10.3551
-10.4229
-10.4634
-10.4836
-10.4796
-10.4601
-10.4224
-10.3745
-10.3183
-10.2566
-10.1934
-10.1279
-10.0655
-10.0002
-9.93524
-9.86819
-9.80024
-9.72847
-9.65267
-9.57153
0.0234074
-1.00634
-1.95058
-2.80197
-3.56559
-4.25866
-4.89059
-5.46904
-5.99706
-6.48066
-6.92055
-7.32139
-7.68233
-8.00791
-8.29633
-8.55237
-8.77392
-8.96643
-9.12772
-9.26348
-9.37175
-9.45561
-9.51488
-9.55734
-9.57619
-9.58069
-9.56492
-9.53782
-9.49832
-9.45191
-9.39678
-9.33957
-9.27758
-9.22064
-9.15927
-9.10151
-9.04396
-8.98802
-8.93097
-8.87301
-8.81172
0.0416634
-0.927624
-1.81357
-2.61026
-3.32141
-3.96304
-4.54595
-5.07606
-5.55857
-5.99749
-6.39612
-6.75629
-7.08046
-7.36953
-7.62587
-7.85
-8.04495
-8.21092
-8.35165
-8.4672
-8.5615
-8.63226
-8.68769
-8.72363
-8.74823
-8.75352
-8.74924
-8.73167
-8.7063
-8.6683
-8.62474
-8.573
-8.52048
-8.46602
-8.4115
-8.35886
-8.30659
-8.2574
-8.20975
-8.1638
-8.11717
0.0613999
-0.853917
-1.68886
-2.43566
-3.09905
-3.69411
-4.23098
-4.71604
-5.15508
-5.55233
-5.91168
-6.23504
-6.52496
-6.78211
-7.009
-7.2059
-7.37585
-7.51944
-7.64023
-7.73873
-7.81871
-7.87959
-7.92421
-7.9588
-7.97682
-7.98794
-7.98826
-7.98266
-7.96558
-7.9451
-7.91153
-7.87497
-7.82982
-7.78701
-7.73597
-7.6864
-7.63627
-7.58889
-7.54304
-7.50021
-7.45837
0.0828517
-0.786358
-1.57544
-2.27835
-2.89849
-3.45057
-3.94449
-4.38751
-4.78489
-5.14227
-5.46333
-5.75124
-6.00835
-6.23603
-6.43599
-6.60874
-6.75668
-6.88026
-6.98281
-7.06514
-7.13096
-7.17937
-7.21792
-7.2432
-7.26282
-7.27319
-7.27962
-7.27733
-7.27271
-7.25603
-7.23662
-7.20963
-7.17913
-7.14303
-7.10468
-7.06452
-7.02189
-6.98017
-6.93896
-6.89969
-6.86109
0.1049
-0.724518
-1.47494
-2.13851
-2.71983
-3.232
-3.68606
-4.08824
-4.44635
-4.76457
-5.04893
-5.30133
-5.52627
-5.72399
-5.89808
-6.04776
-6.1761
-6.28226
-6.36948
-6.43754
-6.48993
-6.52667
-6.55042
-6.56696
-6.5746
-6.57882
-6.5763
-6.57246
-6.55944
-6.54712
-6.52743
-6.5067
-6.47858
-6.45142
-6.4176
-6.38243
-6.3441
-6.30519
-6.26512
-6.22586
-6.18691
0.128058
-0.66909
-1.38644
-2.01775
-2.56528
-3.04209
-3.45785
-3.82116
-4.13916
-4.41866
-4.66499
-4.88254
-5.07413
-5.24255
-5.38907
-5.51583
-5.62361
-5.71435
-5.78855
-5.84813
-5.89414
-5.92599
-5.94986
-5.96537
-5.97639
-5.98099
-5.98374
-5.97914
-5.97443
-5.96289
-5.95099
-5.9331
-5.91325
-5.88781
-5.86276
-5.83392
-5.80356
-5.77083
-5.73796
-5.70498
-5.6731
0.15134
-0.618062
-1.30797
-1.91133
-2.43168
-2.87939
-3.26402
-3.59284
-3.87345
-4.11337
-4.31923
-4.4973
-4.65195
-4.78708
-4.90426
-5.00533
-5.08997
-5.15926
-5.21257
-5.25126
-5.27468
-5.28536
-5.28612
-5.28066
-5.26818
-5.25341
-5.23282
-5.21298
-5.18847
-5.16545
-5.13725
-5.10912
-5.07828
-5.04813
-5.01635
-4.98628
-4.95732
-4.92894
-4.90195
-4.87615
-4.85154
0.173842
-0.572198
-1.23453
-1.80997
-2.30218
-2.72315
-3.08175
-3.38543
-3.63997
-3.8514
-4.02504
-4.16676
-4.28193
-4.37664
-4.45565
-4.52396
-4.58426
-4.63917
-4.68894
-4.73388
-4.77337
-4.80643
-4.83362
-4.85409
-4.86846
-4.87522
-4.87782
-4.8738
-4.86753
-4.85568
-4.84399
-4.82999
-4.81618
-4.80051
-4.78596
-4.77217
-4.75757
-4.74263
-4.72829
-4.71465
-4.70054
0.192696
-0.535532
-1.17407
-1.719
-2.17623
-2.55874
-2.87943
-3.14814
-3.37338
-3.56188
-3.71822
-3.8458
-3.94624
-4.02139
-4.0721
-4.1008
-4.10928
-4.10126
-4.07911
-4.04687
-4.00595
-3.95977
-3.91116
-3.86264
-3.81328
-3.76596
-3.71836
-3.67491
-3.63173
-3.59417
-3.55678
-3.52457
-3.49531
-3.47264
-3.4519
-3.43465
-3.42178
-3.41207
-3.40339
-3.39608
-3.38892
0.207353
-0.516344
-1.14813
-1.68226
-2.1195
-2.47063
-2.74696
-2.96088
-3.12412
-3.2487
-3.34517
-3.42323
-3.49017
-3.5522
-3.61243
-3.67337
-3.73439
-3.79517
-3.85354
-3.90807
-3.95733
-4.00004
-4.03467
-4.06087
-4.07859
-4.08713
-4.09043
-4.08642
-4.08062
-4.07037
-4.0602
-4.04972
-4.03916
-4.02963
-4.01957
-4.01367
-4.00617
-3.99888
-3.99156
-3.98523
-3.97727
0.216629
-0.514622
-1.15771
-1.7096
-2.17013
-2.54421
-2.83824
-3.05823
-3.21081
-3.30324
-3.34236
-3.33597
-3.29048
-3.21401
-3.11239
-2.99385
-2.8632
-2.72801
-2.59096
-2.45824
-2.32969
-2.20984
-2.09973
-2.0019
-1.91188
-1.83405
-1.7618
-1.70301
-1.65105
-1.61224
-1.58034
-1.56222
-1.55455
-1.55872
-1.56458
-1.57932
-1.59743
-1.61231
-1.62198
-1.62545
-1.62233
0.216633
-0.509685
-1.12484
-1.63967
-2.06807
-2.42583
-2.72624
-2.97949
-3.19348
-3.37439
-3.52719
-3.65562
-3.7629
-3.8511
-3.92239
-3.97759
-4.01832
-4.04461
-4.05831
-4.05947
-4.0505
-4.03178
-4.00448
-3.9671
-3.92576
-3.88062
-3.83721
-3.79684
-3.76281
-3.73743
-3.72474
-3.72021
-3.72539
-3.73431
-3.75915
-3.78336
-3.80879
-3.83468
-3.8594
-3.88024
-3.89416
19.0232
18.5103
8.14119
-1.08502
-3.25892
0.539756
7.33893
12.1931
15.5411
14.4306
13.935
9.97294
8.12069
4.37682
2.52159
0.062794
-0.788803
-1.75956
-3.00523
-2.70877
-1.91395
-0.302091
0.0905162
0.953796
1.09758
0.828665
0.0362216
-1.40718
-2.45918
-2.07057
-2.01017
0.443739
1.6358
4.95217
6.91477
8.12959
8.64217
7.29398
6.62846
4.0111
1.92468
-0.0366252
-0.851958
-1.70743
-1.99074
-1.75385
-0.990695
-0.572567
0.185572
0.390901
0.937503
1.05268
1.34464
1.42996
1.46398
1.47265
1.39158
1.39072
1.31149
1.27219
1.21319
1.20544
1.18986
1.14989
1.15073
1.11602
1.04225
0.961065
0.88005
0.766517
0.649877
0.47368
0.43163
-0.0528273
14.3927
16.1388
8.22398
1.22587
-0.515696
2.47189
7.95171
11.9763
14.8955
14.057
13.5035
10.0275
8.14467
4.73452
2.83571
0.471487
-0.404604
-1.46888
-2.87753
-2.76465
-2.15308
-0.779099
-0.515575
0.201637
0.333006
0.141371
-0.482424
-1.7436
-2.60389
-2.12137
-1.87056
0.474107
1.79041
4.94674
6.89284
8.10701
8.56192
7.26783
6.46829
3.90768
1.80776
-0.126451
-0.981617
-1.796
-2.0675
-1.82372
-1.05991
-0.627814
0.129135
0.360894
0.905763
1.03139
1.32331
1.41398
1.45084
1.46041
1.38166
1.37716
1.29842
1.25763
1.19986
1.1929
1.1787
1.14271
1.14533
1.11393
1.04328
0.965226
0.88693
0.776274
0.662589
0.488215
0.445011
-0.0387163
12.8729
13.6529
6.89117
1.97295
1.27869
4.03436
8.46012
11.8543
14.4257
13.9779
13.42
10.4096
8.46926
5.31462
3.33111
1.04623
0.0606102
-1.23674
-2.87185
-3.0277
-2.60479
-1.47034
-1.21408
-0.596642
-0.424238
-0.518422
-0.969778
-2.03652
-2.65732
-2.11875
-1.6921
0.550096
1.96501
4.93937
6.83894
8.06627
8.44724
7.21266
6.28107
3.78034
1.6784
-0.238176
-1.11723
-1.89617
-2.14214
-1.88506
-1.13508
-0.676548
0.064339
0.340194
0.869547
1.0155
1.30009
1.39542
1.43491
1.44461
1.37134
1.35906
1.28055
1.24075
1.18536
1.17785
1.16634
1.13387
1.13757
1.1098
1.04248
0.967351
0.891643
0.783753
0.673084
0.500601
0.456034
-0.0263028
11.7192
11.3829
4.82856
1.56373
1.96376
4.83322
8.54983
11.4777
13.7543
13.7868
13.4059
10.985
9.10736
6.22116
4.14229
1.89986
0.679595
-1.00418
-2.95214
-3.40567
-3.15385
-2.19441
-1.88098
-1.27926
-1.03612
-1.03914
-1.34231
-2.15045
-2.57795
-2.03155
-1.46461
0.66418
2.14597
4.92482
6.74226
7.97578
8.28005
7.10918
6.05742
3.62606
1.54093
-0.356684
-1.25043
-1.99707
-2.20857
-1.94297
-1.21017
-0.721846
0.00425088
0.319027
0.83609
0.996151
1.27291
1.37109
1.41325
1.42181
1.35464
1.33267
1.26095
1.22248
1.16948
1.16045
1.15237
1.12305
1.12739
1.10341
1.03961
0.967322
0.893991
0.7888
0.681183
0.510802
0.464633
-0.0157013
10.7822
9.83768
3.34063
1.25844
2.50332
5.58324
8.92611
11.4472
13.3138
13.6287
13.4212
11.5619
9.79495
7.13692
4.92964
2.66847
1.18382
-0.942214
-3.11149
-3.76906
-3.632
-2.77598
-2.36139
-1.72033
-1.40078
-1.33162
-1.52271
-2.14683
-2.43418
-1.90365
-1.23081
0.787949
2.32535
4.89715
6.61999
7.82888
8.06764
6.96108
5.80709
3.45387
1.39164
-0.481072
-1.38858
-2.10174
-2.27671
-1.98971
-1.27813
-0.762074
-0.0516389
0.299136
0.803917
0.976209
1.24358
1.3429
1.38689
1.39438
1.33155
1.30634
1.24212
1.20284
1.15135
1.14157
1.13693
1.11111
1.11602
1.09569
1.03557
0.966096
0.895006
0.792341
0.687635
0.519476
0.471453
-0.00626569
10.2579
9.14167
2.98507
1.63385
3.43272
6.61799
9.85523
12.1602
13.596
13.8804
13.6555
12.1576
10.4444
7.91627
5.54904
3.21253
1.39653
-1.12812
-3.38446
-4.10482
-4.00024
-3.19633
-2.64553
-1.95213
-1.57186
-1.47626
-1.62347
-2.10666
-2.30087
-1.7997
-1.04563
0.870125
2.45304
4.83445
6.45674
7.60815
7.79149
6.74423
5.52136
3.25811
1.23967
-0.595604
-1.51549
-2.19731
-2.339
-2.03935
-1.34563
-0.801172
-0.102647
0.281362
0.773903
0.955955
1.21285
1.31294
1.35875
1.36548
1.3085
1.28184
1.221
1.17928
1.12994
1.1202
1.1188
1.09672
1.10211
1.08543
1.02933
0.96285
0.89401
0.793846
0.692056
0.526401
0.476315
0.00203248
10.1586
9.29308
3.93989
3.00252
5.06075
8.15649
11.2894
13.5345
14.6663
14.7557
14.2783
12.8391
11.0211
8.50477
5.96319
3.51733
1.34736
-1.38668
-3.54293
-4.29551
-4.20945
-3.43199
-2.7555
-2.01552
-1.6057
-1.52825
-1.69548
-2.13596
-2.29151
-1.8313
-1.00274
0.834288
2.48312
4.70578
6.25733
7.33773
7.47314
6.48597
5.21142
3.04906
1.07843
-0.705666
-1.63691
-2.28905
-2.40235
-2.08127
-1.40698
-0.836809
-0.148432
0.264778
0.744178
0.934175
1.17869
1.27812
1.32469
1.33168
1.28095
1.25196
1.19294
1.15097
1.1054
1.09663
1.09818
1.08007
1.08586
1.07259
1.02081
0.957497
0.890948
0.793327
0.694326
0.531332
0.47897
0.00918424
10.1665
9.90483
5.89403
5.28841
7.36883
10.2304
13.0828
15.1972
16.0845
15.9216
15.1047
13.5253
11.5059
8.92559
6.23793
3.68751
1.24286
-1.45022
-3.54975
-4.36671
-4.30762
-3.55264
-2.76494
-1.98483
-1.56096
-1.5297
-1.77536
-2.22175
-2.40777
-2.01909
-1.14599
0.629749
2.35481
4.47529
5.98893
7.0095
7.11295
6.18077
4.88322
2.82599
0.920519
-0.798799
-1.73505
-2.35953
-2.45266
-2.1295
-1.47179
-0.874777
-0.19279
0.24683
0.713674
0.910303
1.14135
1.23819
1.28368
1.28918
1.24456
1.21285
1.15787
1.11863
1.07827
1.07045
1.07445
1.06022
1.06625
1.05632
1.00921
0.949328
0.885184
0.790235
0.69396
0.533874
0.479071
0.01503
9.46892
10.043
7.9316
8.0303
10.0484
12.6207
15.1092
16.9525
17.5987
17.1398
15.9615
14.1525
11.9063
9.22841
6.41787
3.75068
1.19849
-1.4246
-3.41833
-4.34372
-4.36099
-3.64133
-2.76674
-1.93287
-1.47598
-1.46885
-1.79189
-2.31841
-2.59519
-2.32039
-1.4544
0.255035
2.06182
4.13505
5.6682
6.66377
6.75527
5.87975
4.55966
2.60396
0.756584
-0.887653
-1.82127
-2.41481
-2.49334
-2.16227
-1.52664
-0.912779
-0.239922
0.222426
0.67879
0.88436
1.10269
1.19681
1.23959
1.24306
1.20196
1.16886
1.11935
1.08413
1.04885
1.04189
1.04796
1.0377
1.04396
1.03702
0.994796
0.938541
0.87689
0.784816
0.691061
0.534006
0.476469
0.0197283
7.41991
8.73431
8.68749
10.0983
12.3457
14.7396
16.9334
18.5095
18.9726
18.2914
16.8127
14.762
12.3054
9.51035
6.58344
3.79856
1.10025
-1.34554
-3.21422
-4.28845
-4.46068
-3.82192
-2.88511
-1.97159
-1.4273
-1.37558
-1.72657
-2.29736
-2.69205
-2.57602
-1.80303
-0.211817
1.62404
3.6767
5.26316
6.28359
6.40851
5.60055
4.27912
2.40383
0.606462
-0.972374
-1.89883
-2.45525
-2.51434
-2.18718
-1.57207
-0.950225
-0.292215
0.185307
0.631756
0.848759
1.0585
1.1522
1.19359
1.19516
1.15747
1.12319
1.07858
1.04683
1.01586
1.00948
1.01737
1.01122
1.01793
1.01395
0.976854
0.924528
0.865619
0.776656
0.685334
0.531517
0.470988
0.0233493
4.6163
6.16012
7.5574
10.3979
13.234
15.6843
17.7815
19.214
19.6073
18.9173
17.3663
15.209
12.623
9.73376
6.69744
3.75654
0.940628
-1.36322
-3.00079
-4.21848
-4.6245
-4.14067
-3.19747
-2.19157
-1.49785
-1.29853
-1.55837
-2.12491
-2.60452
-2.65678
-2.04819
-0.647249
1.13491
3.14221
4.78407
5.85945
6.05759
5.34984
4.05327
2.25778
0.491481
-1.04259
-1.97808
-2.50813
-2.54978
-2.20568
-1.60489
-0.978467
-0.337541
0.145463
0.575031
0.798354
0.997939
1.0928
1.13536
1.13883
1.10618
1.07348
1.03341
1.00469
0.977804
0.972447
0.982382
0.980675
0.988248
0.987073
0.955313
0.907199
0.851261
0.765771
0.676743
0.526367
0.462359
0.0261594
1.9472
3.34302
5.12476
8.64396
12.1579
14.9905
17.2228
18.6672
19.0598
18.4315
16.9856
14.9171
12.3769
9.50064
6.43619
3.41596
0.466234
-1.65694
-3.02619
-4.26891
-4.88581
-4.61245
-3.73603
-2.66276
-1.78568
-1.34762
-1.39852
-1.81181
-2.28527
-2.46602
-2.06502
-0.929049
0.682021
2.56943
4.21501
5.34343
5.64403
5.0647
3.84221
2.13566
0.410084
-1.08931
-2.03924
-2.55405
-2.58357
-2.23917
-1.64836
-1.01352
-0.381985
0.106473
0.518612
0.742745
0.926751
1.01701
1.05841
1.06476
1.04008
1.01198
0.978717
0.954964
0.933447
0.929862
0.941961
0.944711
0.953605
0.955399
0.929213
0.885743
0.833246
0.751627
0.664938
0.518311
0.450379
0.0282871
-0.945295
0.468349
1.92425
4.86652
8.34731
11.543
14.2583
16.2479
17.2154
17.0742
15.9907
14.1558
11.7617
8.94047
5.88867
2.76091
-0.216584
-2.32573
-3.5423
-4.68434
-5.38523
-5.29564
-4.53532
-3.43989
-2.38625
-1.65597
-1.37172
-1.51188
-1.83767
-2.04458
-1.82666
-0.993795
0.341512
2.00228
3.56091
4.69999
5.10638
4.68785
3.59264
2.00979
0.340955
-1.12831
-2.10268
-2.61975
-2.64649
-2.28597
-1.69538
-1.04507
-0.414324
0.0784728
0.470604
0.688032
0.849561
0.928266
0.963018
0.969568
0.952128
0.932419
0.909229
0.894114
0.88109
0.88158
0.896639
0.903979
0.914436
0.91891
0.898328
0.859826
0.811205
0.734066
0.649759
0.507293
0.434538
0.030204
-4.98385
-3.07995
-1.53443
0.714139
3.57301
6.48591
9.08592
11.1956
12.6067
13.217
12.9657
11.953
10.23
7.9601
5.27588
2.3888
-0.446062
-2.61457
-3.98395
-5.10633
-5.84806
-5.93889
-5.36776
-4.35298
-3.20908
-2.22619
-1.59739
-1.36224
-1.41466
-1.52113
-1.40533
-0.854561
0.140748
1.47495
2.8293
3.89606
4.37291
4.12124
3.20992
1.80546
0.25109
-1.15783
-2.14239
-2.67301
-2.71456
-2.36866
-1.77683
-1.1032
-0.454814
0.056626
0.441486
0.65219
0.785069
0.839444
0.855588
0.854417
0.840458
0.829
0.818796
0.816715
0.816528
0.824662
0.844799
0.857612
0.870301
0.877469
0.862284
0.828924
0.78465
0.712525
0.630849
0.493075
0.414647
0.0321898
-10.0642
-7.38293
-5.14868
-2.84121
-0.291364
2.25564
4.52235
6.33169
7.67081
8.46966
8.73798
8.39938
7.47849
5.98036
4.01706
1.73215
-0.596084
-2.64675
-4.17432
-5.3366
-6.12436
-6.37707
-6.02591
-5.18292
-4.07631
-2.96435
-2.05202
-1.47299
-1.20593
-1.12273
-1.01245
-0.669618
-0.00206016
0.966627
2.03585
2.9498
3.43721
3.33141
2.62733
1.44662
0.0609998
-1.24412
-2.20617
-2.73828
-2.79668
-2.45496
-1.86279
-1.16984
-0.501182
0.0328569
0.420076
0.630585
0.739939
0.766891
0.754302
0.731362
0.708348
0.699462
0.70132
0.715442
0.73327
0.754596
0.783787
0.804445
0.821073
0.831354
0.821489
0.793279
0.75349
0.686881
0.607946
0.475602
0.389782
0.0352534
-14.5894
-11.3778
-8.63837
-6.20266
-3.89896
-1.714
0.226701
1.85147
3.12637
4.06197
4.61682
4.74746
4.39942
3.55955
2.27162
0.650745
-1.12891
-2.85614
-4.31715
-5.47589
-6.28203
-6.62756
-6.45533
-5.80313
-4.81724
-3.69553
-2.65219
-1.82499
-1.28636
-0.994285
-0.817737
-0.586139
-0.17124
0.469243
1.23889
1.95597
2.39871
2.39376
1.88549
0.938549
-0.245352
-1.41581
-2.32903
-2.85647
-2.9338
-2.61512
-2.01839
-1.29314
-0.579617
0.00378027
0.41938
0.643149
0.734609
0.729228
0.677606
0.619696
0.572673
0.552593
0.557125
0.584472
0.6224
0.663085
0.707685
0.741117
0.765296
0.7804
0.776219
0.753164
0.718039
0.657149
0.581053
0.454821
0.359486
0.04026
-18.3234
-15.1783
-12.4011
-9.97407
-7.8051
-5.84114
-4.11284
-2.63337
-1.41877
-0.441516
0.277066
0.709328
0.802045
0.521908
-0.129349
-1.08749
-2.26557
-3.5016
-4.67115
-5.66059
-6.36758
-6.71594
-6.64167
-6.15308
-5.32899
-4.31778
-3.26335
-2.33055
-1.6149
-1.14683
-0.865061
-0.651033
-0.379859
0.0246991
0.542872
1.06597
1.43002
1.47838
1.12685
0.392482
-0.590446
-1.61752
-2.47134
-2.99985
-3.11976
-2.8408
-2.26701
-1.52748
-0.767896
-0.116281
0.363959
0.642439
0.757013
0.746694
0.665599
0.564341
0.473893
0.419865
0.406396
0.432025
0.482474
0.542377
0.606834
0.659395
0.697732
0.72226
0.726076
0.7092
0.678948
0.623908
0.550393
0.431006
0.322472
0.049143
-20.707
-17.9587
-15.4314
-13.1839
-11.1932
-9.43496
-7.92076
-6.63165
-5.56676
-4.66792
-3.94064
-3.36778
-2.99572
-2.85426
-2.96217
-3.31956
-3.87394
-4.56353
-5.29436
-5.95664
-6.46029
-6.71723
-6.6722
-6.30748
-5.66369
-4.80182
-3.85063
-2.92405
-2.13876
-1.55036
-1.15538
-0.88709
-0.651647
-0.37008
-0.022422
0.340778
0.611538
0.66592
0.417031
-0.149129
-0.950416
-1.83183
-2.60861
-3.12617
-3.28417
-3.07242
-2.54801
-1.82717
-1.04744
-0.340939
0.209269
0.559907
0.726339
0.743575
0.665245
0.547631
0.428886
0.341218
0.296392
0.299599
0.342426
0.408088
0.486712
0.558307
0.614473
0.653203
0.668789
0.660838
0.636855
0.588234
0.517012
0.405094
0.27799
0.0640548
-21.5676
-19.3905
-17.3678
-15.5608
-13.9555
-12.5361
-11.2847
-10.1988
-9.24293
-8.39692
-7.62713
-6.93719
-6.34459
-5.88067
-5.58104
-5.46242
-5.52147
-5.7321