/*--------------------------------*- C++ -*----------------------------------*\
| =========                 |                                                 |
| \\      /  F ield         | OpenFOAM: The Open Source CFD Toolbox           |
|  \\    /   O peration     | Version:  2312                                  |
|   \\  /    A nd           | Website:  www.openfoam.com                      |
|    \\/     M anipulation  |                                                 |
\*---------------------------------------------------------------------------*/
FoamFile
{
    version     2.0;
    format      ascii;
    arch        "LSB;label=32;scalar=64";
    class       surfaceScalarField;
    location    "50";
    object      phi;
}
// * * * * * * * * * * * * * * * * * * * * * * * * * * * * * * * * * * * * * //

dimensions      [0 3 -1 0 0 0 0];

oriented        oriented;

internalField   nonuniform List<scalar> 
21876
(
0.0401867
-0.0105945
-0.0295926
0.0406695
-0.000483518
0.035413
0.00525628
0.0280041
0.00740869
0.0207328
0.00727109
0.0150445
0.0056877
0.0115609
0.00348281
0.010329
0.00123077
0.0109342
-0.000606554
0.0125166
-0.00158326
0.0142171
-0.00170171
0.0156519
-0.00143538
0.0167358
-0.00108417
0.0174929
-0.000756408
0.0179764
-0.000485607
0.0182468
-0.000270391
0.018338
-9.24002e-05
0.0182581
7.60904e-05
0.0180209
0.000240281
0.0176342
0.000382476
0.0170861
0.000547008
0.016479
0.000616194
0.0158652
0.00060668
0.0152157
0.000669515
0.0144808
0.000747151
0.0136847
0.000798058
0.0128445
0.00085215
0.0119368
0.000909138
0.0109504
0.000996478
0.00985831
0.00108951
0.00867214
0.00118888
0.00744959
0.00124336
0.00638704
0.00112699
0.00565141
0.000665412
0.00536632
0.000142987
0.00533612
0.000188538
0.00427369
0.001083
0.00219963
0.0020977
0.000395408
0.00197005
0.000205809
0.000126144
-0.0058397
0.00621673
0.0412617
-0.0210244
-0.0308328
0.043978
-0.00320043
0.0458989
0.00333557
0.0470774
0.00623078
0.0465782
0.00777104
0.0444661
0.0078007
0.0415625
0.00638738
0.038723
0.00407121
0.0363548
0.00176252
0.0345072
0.000265169
0.0330408
-0.000234577
0.0317905
-0.000184488
0.0307163
-9.40437e-06
0.0298281
0.000131635
0.0291154
0.00022606
0.0285376
0.000306434
0.0280385
0.000405584
0.0275655
0.000549239
0.0270522
0.000754917
0.0264305
0.00100448
0.0256532
0.0013218
0.0248152
0.00145382
0.0239655
0.0014565
0.0231018
0.00153567
0.0221749
0.00167305
0.0211637
0.00181467
0.0200588
0.00196182
0.0188479
0.00211772
0.0175439
0.00230214
0.0161276
0.0025034
0.0145606
0.00276338
0.0128605
0.00296139
0.011276
0.00273828
0.0100492
0.00188802
0.00908523
0.00109901
0.00769859
0.00161865
0.00516922
0.00363966
0.00279066
0.00451377
0.00239858
0.0024216
0.00362828
-0.00100856
-0.00884452
0.00682745
0.0455281
-0.0335327
-0.0330196
0.0534453
-0.011118
0.0571189
-0.000338067
0.0592843
0.0040655
0.0606606
0.00639479
0.06113
0.00733132
0.0606373
0.00688
0.0594032
0.00530493
0.0578439
0.00332136
0.056336
0.00177235
0.05498
0.00112057
0.0536501
0.00114486
0.0522279
0.00141246
0.0506554
0.00170481
0.0489356
0.00194483
0.0471117
0.00213032
0.0452381
0.00227848
0.0433677
0.00241627
0.041535
0.00259112
0.0397438
0.00279576
0.03797
0.00309897
0.0363754
0.00305906
0.0349424
0.00288104
0.033597
0.00288825
0.032237
0.0030357
0.0308064
0.00324499
0.0292683
0.00350905
0.0276022
0.00378552
0.0258235
0.00408929
0.0239134
0.00440941
0.0218419
0.004825
0.0196514
0.00516082
0.0175632
0.00485543
0.015665
0.00374059
0.0136579
0.00301569
0.0110851
0.00427362
0.00812758
0.00660848
0.00598651
0.00665187
0.00556551
0.00290214
0.00654486
-0.0020305
-0.00985972
0.00756867
0.0485856
-0.0462073
-0.035912
0.0585718
-0.0211046
0.0639582
-0.00572461
0.0668024
0.00122114
0.0686117
0.00458565
0.069779
0.00616411
0.0702919
0.00636742
0.0701311
0.00546603
0.0694735
0.00397943
0.0686425
0.00260397
0.0678755
0.0018882
0.067193
0.00182827
0.0665389
0.0020677
0.0658515
0.00239339
0.0650784
0.00271881
0.064175
0.00303493
0.0630968
0.00335727
0.0617996
0.00371405
0.0602342
0.00415835
0.0583462
0.00468492
0.0561071
0.00533994
0.0538052
0.00536323
0.0515442
0.00514042
0.0493579
0.0050624
0.0471979
0.00519061
0.0450134
0.00542754
0.0427607
0.0057627
0.0404017
0.00614643
0.0379309
0.00656538
0.0353197
0.00702169
0.0325519
0.00759573
0.0296829
0.0080402
0.0268318
0.00771855
0.0238972
0.00666558
0.0206121
0.00629572
0.0170059
0.00790719
0.0137001
0.00992639
0.0113719
0.00900089
0.0102835
0.00402802
0.0104484
-0.00216118
-0.00913843
0.0098049
0.0522861
-0.0591672
-0.0393264
0.0640805
-0.0328993
0.0725366
-0.0141809
0.0777919
-0.00403404
0.0810099
0.00136757
0.08286
0.00431407
0.0836253
0.00560222
0.0835122
0.0055791
0.0827764
0.00471516
0.0817493
0.00363097
0.0807129
0.00292459
0.0797641
0.00277702
0.0789037
0.00292832
0.0781063
0.00319138
0.0773532
0.00347166
0.076633
0.00375499
0.075935
0.00405485
0.0752473
0.00439942
0.074536
0.00487237
0.0737175
0.00550491
0.0726711
0.00639083
0.0714319
0.00661103
0.0700111
0.00655482
0.0684014
0.00667568
0.0665432
0.00704836
0.0643951
0.00757605
0.0619188
0.0082445
0.0590808
0.00898529
0.0558963
0.00975453
0.0523998
0.0105149
0.0486754
0.011312
0.0448322
0.0118915
0.0408704
0.0116947
0.0365447
0.0109609
0.0317747
0.0110149
0.0270541
0.0126656
0.0231296
0.0138645
0.0201809
0.0119538
0.0179596
0.00628984
0.0166711
-0.000892527
-0.00709936
0.0146229
0.0569105
-0.0728243
-0.0432535
0.0699864
-0.0459758
0.0808088
-0.0250031
0.0886364
-0.0118622
0.0938195
-0.00381565
0.0970761
0.0010571
0.0988213
0.00385663
0.0993254
0.00507474
0.0989099
0.00513037
0.0979738
0.00456701
0.0968796
0.00401874
0.0958002
0.00385687
0.0947756
0.00395371
0.0937847
0.00418299
0.0928075
0.00444965
0.091836
0.00472741
0.090872
0.00501907
0.0899325
0.00533955
0.0890345
0.00577142
0.0881699
0.00637039
0.0872994
0.00726367
0.0864687
0.00744353
0.0856717
0.00735002
0.0849015
0.00744193
0.0840932
0.00785408
0.0831512
0.00851612
0.0819445
0.00945074
0.0802992
0.0106314
0.0780469
0.0120098
0.0750675
0.013495
0.0713694
0.0150133
0.067032
0.0162384
0.0620076
0.0167223
0.0561224
0.0168329
0.0496713
0.0174625
0.0435603
0.018792
0.0385596
0.018875
0.0344816
0.0160484
0.0307723
0.0100149
0.027345
0.00253616
-0.00323938
0.0234995
0.0626554
-0.0877644
-0.0477161
0.0770463
-0.0603666
0.0898143
-0.0377722
0.100147
-0.0221949
0.107769
-0.0114377
0.11303
-0.00420407
0.116376
0.00051055
0.118125
0.00332526
0.118587
0.00466789
0.118168
0.00498613
0.11728
0.00490682
0.116196
0.00494088
0.115052
0.0050982
0.113885
0.00535061
0.112701
0.00563414
0.111499
0.00592923
0.110277
0.00624126
0.109041
0.00657464
0.107808
0.00700501
0.106582
0.0075984
0.105337
0.00851135
0.104174
0.00861194
0.103096
0.00842506
0.102141
0.00839616
0.101318
0.00867634
0.100626
0.00920813
0.100035
0.0100446
0.0994442
0.0112227
0.0986904
0.0127653
0.0975585
0.0146251
0.0958361
0.0167336
0.0932509
0.0188298
0.0893567
0.0206214
0.0837439
0.0224309
0.0767741
0.0244133
0.0696115
0.0259655
0.0632226
0.0252744
0.0574762
0.0218045
0.051892
0.0156135
0.0458198
0.00860161
0.00321002
0.0393618
0.0696535
-0.104603
-0.0528148
0.085683
-0.076397
0.100241
-0.0523309
0.112788
-0.0347413
0.122856
-0.0215065
0.130416
-0.0117634
0.135711
-0.00478453
0.13905
-1.43139e-05
0.140742
0.00297575
0.141159
0.00456948
0.140744
0.00532105
0.139863
0.00582199
0.13876
0.00620178
0.137551
0.00655985
0.136283
0.00690186
0.134975
0.00723759
0.133627
0.00758878
0.132241
0.00796101
0.13083
0.00841652
0.129407
0.00902311
0.127956
0.00996517
0.126584
0.00998462
0.125268
0.00974119
0.124025
0.00963959
0.122862
0.00983954
0.121804
0.0102674
0.12088
0.0109696
0.120105
0.0119986
0.119475
0.0133968
0.118962
0.0151373
0.118515
0.0171841
0.117938
0.0194135
0.116755
0.0218031
0.114306
0.0248681
0.110277
0.0284393
0.104992
0.0312565
0.0989951
0.0312777
0.0923355
0.0284732
0.0849536
0.0229956
0.076185
0.0173601
0.0128165
0.0665692
0.0780262
-0.123993
-0.0586358
0.096198
-0.0945707
0.112716
-0.0688483
0.127333
-0.0493593
0.139696
-0.0338682
0.149619
-0.0216866
0.157149
-0.0123138
0.162466
-0.00533269
0.165837
-0.000394887
0.167585
0.00282004
0.168112
0.00479455
0.167812
0.00612188
0.16701
0.00700414
0.165913
0.0076569
0.16464
0.00817596
0.163256
0.00862117
0.161797
0.00904796
0.160276
0.00948104
0.15871
0.0099831
0.157117
0.0106173
0.155507
0.0115779
0.153999
0.0114949
0.152556
0.0111848
0.151169
0.0110267
0.149825
0.0111839
0.148527
0.0115673
0.147297
0.0122009
0.146163
0.0131339
0.14515
0.0144107
0.144288
0.0160003
0.14363
0.0178454
0.143215
0.0198334
0.143045
0.0219731
0.143041
0.0248663
0.14289
0.0285864
0.141961
0.0321887
0.139539
0.0337066
0.134999
0.0330188
0.128136
0.0298593
0.118516
0.0269744
0.0241912
0.107133
0.087958
-0.146662
-0.065292
0.108901
-0.115513
0.127798
-0.0877463
0.144614
-0.0661746
0.159199
-0.0484541
0.171425
-0.033912
0.181254
-0.0221432
0.188764
-0.0128425
0.194113
-0.00574512
0.197557
-0.000623567
0.199434
0.00291763
0.200112
0.00544442
0.199947
0.00716883
0.199226
0.00837911
0.198144
0.00925716
0.196835
0.00993032
0.19538
0.0105025
0.193821
0.0110398
0.192179
0.0116256
0.190473
0.012325
0.188727
0.0133261
0.18708
0.0131436
0.185508
0.0127571
0.184004
0.0125317
0.182548
0.0126417
0.181128
0.012988
0.179759
0.0135708
0.178474
0.0144196
0.177299
0.0155849
0.176243
0.0170557
0.175304
0.0187861
0.174475
0.0206652
0.173846
0.0225979
0.17376
0.024944
0.174573
0.0277693
0.175956
0.0308083
0.176797
0.0328686
0.175817
0.0340036
0.172244
0.03343
0.165542
0.0336695
0.0335092
0.156215
0.0996891
-0.173444
-0.0729079
0.124145
-0.139971
0.146025
-0.109626
0.165418
-0.085568
0.182364
-0.0654009
0.196884
-0.0484319
0.208995
-0.034254
0.21875
-0.0225983
0.226258
-0.0132527
0.231681
-0.00604684
0.235282
-0.000682702
0.237381
0.00334505
0.238305
0.00624558
0.238363
0.00832136
0.237806
0.00981339
0.236826
0.0109101
0.235557
0.0117713
0.234085
0.0125121
0.232457
0.0132539
0.230704
0.01408
0.22886
0.0151725
0.227079
0.0149257
0.22537
0.0144686
0.223741
0.014162
0.222184
0.0141995
0.220679
0.0144937
0.21923
0.0150194
0.217868
0.0157807
0.216632
0.0168185
0.215543
0.0181439
0.214588
0.0197401
0.213711
0.0215385
0.212875
0.0234292
0.21224
0.0255683
0.212239
0.027769
0.213028
0.0300149
0.214077
0.0318228
0.214459
0.0336194
0.213595
0.0342927
0.211113
0.0361433
0.0382205
0.206396
0.113529
-0.20533
-0.081644
0.142382
-0.168825
0.168004
-0.135249
0.190563
-0.108128
0.210246
-0.0850845
0.227233
-0.065419
0.24167
-0.0486911
0.253679
-0.034608
0.263383
-0.0229565
0.270917
-0.0135807
0.276469
-0.00623497
0.280301
-0.000485757
0.28269
0.00385646
0.283919
0.00709287
0.284252
0.00947902
0.283917
0.0112448
0.283094
0.0125945
0.281917
0.0136897
0.280477
0.0146944
0.278835
0.0157249
0.277038
0.0169705
0.275244
0.0167218
0.27349
0.0162246
0.27181
0.0158418
0.270218
0.0157945
0.268694
0.0160156
0.267232
0.0164808
0.265847
0.0171633
0.264578
0.018086
0.263459
0.0192612
0.262504
0.020693
0.261695
0.0223456
0.260977
0.0241402
0.260336
0.0262055
0.259916
0.0281821
0.259853
0.0300795
0.259951
0.0317214
0.259741
0.0338307
0.259073
0.0349548
0.258316
0.036899
0.0394452
0.257084
0.129867
-0.243504
-0.0916937
0.164173
-0.203133
0.194456
-0.165533
0.22095
-0.134622
0.243954
-0.108089
0.263791
-0.085257
0.280755
-0.0656557
0.295092
-0.0489449
0.307004
-0.0348692
0.316664
-0.0232401
0.324252
-0.0138229
0.329987
-0.00622122
0.334097
-0.000253067
0.336828
0.00436184
0.33842
0.00788705
0.339102
0.0105628
0.339076
0.0126209
0.338511
0.0142546
0.337543
0.0156646
0.336268
0.017
0.334766
0.0184747
0.333162
0.0183256
0.331526
0.0178603
0.329919
0.0174512
0.328372
0.01734
0.326894
0.0174972
0.325481
0.0178941
0.324142
0.0185028
0.322899
0.0193289
0.321787
0.0203731
0.320838
0.0216429
0.320066
0.0231175
0.31946
0.0247461
0.318972
0.0266909
0.318606
0.0285487
0.318368
0.0303187
0.318156
0.0319345
0.317674
0.0343118
0.316763
0.0358664
0.315835
0.0378239
0.0398958
0.315384
0.149189
-0.289391
-0.103302
0.190215
-0.244162
0.22627
-0.201588
0.257645
-0.165998
0.284744
-0.135189
0.30802
-0.108534
0.327911
-0.0855466
0.344803
-0.0658374
0.359024
-0.0490897
0.370833
-0.0350497
0.380463
-0.0234521
0.388151
-0.0139089
0.394101
-0.00620299
0.398528
-6.56548e-05
0.401653
0.00476295
0.403681
0.00853537
0.404811
0.0114901
0.405227
0.0138397
0.405084
0.015807
0.404514
0.0175713
0.403619
0.0193682
0.402472
0.0194733
0.40118
0.019156
0.399821
0.0188089
0.398466
0.0187013
0.397147
0.0188166
0.395884
0.0191597
0.394689
0.0197022
0.39358
0.0204389
0.392593
0.021365
0.391758
0.0224809
0.391104
0.0237766
0.39064
0.0252135
0.390333
0.0270015
0.390162
0.0287242
0.390089
0.030396
0.390068
0.0319592
0.389964
0.0344187
0.389658
0.0361759
0.389145
0.038338
0.0401659
0.388876
0.172096
-0.344718
-0.116769
0.221375
-0.293443
0.264541
-0.244754
0.301949
-0.203408
0.334114
-0.167353
0.361613
-0.136034
0.38503
-0.108963
0.404896
-0.0857041
0.421681
-0.0658747
0.435769
-0.0491381
0.447486
-0.0351686
0.457134
-0.0235568
0.464954
-0.0140224
0.47116
-0.00627179
0.475962
-3.87589e-05
0.479558
0.00493911
0.482132
0.00891664
0.483856
0.0121153
0.484889
0.0147738
0.485371
0.01709
0.485422
0.0193174
0.485035
0.0198633
0.484356
0.0198343
0.483501
0.0196734
0.482551
0.0196524
0.481589
0.0197887
0.48065
0.0201042
0.479764
0.0205883
0.47897
0.0212399
0.478288
0.0220467
0.477763
0.0230136
0.477411
0.0241295
0.477261
0.0253723
0.477279
0.0269843
0.477471
0.0285425
0.477788
0.0300789
0.478225
0.0315335
0.478712
0.0339302
0.479305
0.0355921
0.479905
0.0377362
0.0394837
0.480592
0.199329
-0.411584
-0.132463
0.25872
-0.352837
0.310622
-0.296656
0.355467
-0.248254
0.393887
-0.205772
0.4266
-0.168748
0.454339
-0.136702
0.477793
-0.109158
0.497583
-0.085664
0.514235
-0.0657906
0.528201
-0.0491333
0.53988
-0.0352368
0.549592
-0.0237333
0.557599
-0.0142792
0.564129
-0.0065693
0.569387
-0.000319147
0.573557
0.0047468
0.5768
0.00887209
0.579267
0.0123076
0.581092
0.0152664
0.582398
0.0180133
0.583074
0.0191869
0.583331
0.0195876
0.583285
0.0197197
0.583068
0.0198806
0.582755
0.0201015
0.582433
0.020436
0.582145
0.02088
0.581936
0.021449
0.581842
0.0221437
0.581888
0.0229668
0.582107
0.0239143
0.582511
0.0249675
0.583098
0.0264021
0.583866
0.0277735
0.584814
0.0291361
0.585922
0.0304242
0.587158
0.0326973
0.58859
0.0341585
0.590233
0.0360946
0.0376312
0.592083
0.231782
-0.492543
-0.150823
0.303555
-0.424612
0.366175
-0.359276
0.420164
-0.302245
0.466296
-0.251903
0.505448
-0.207901
0.538524
-0.169777
0.566382
-0.137017
0.589812
-0.109093
0.609497
-0.0854759
0.626031
-0.0656668
0.639938
-0.0491444
0.651641
-0.0354356
0.661484
-0.0241236
0.669758
-0.0148424
0.676697
-0.00725934
0.682509
-0.00106591
0.687372
0.00400995
0.691438
0.00824314
0.694841
0.0118654
0.697705
0.0151518
0.699784
0.0171146
0.701316
0.0180539
0.702465
0.018583
0.703342
0.0190022
0.704074
0.0193806
0.704734
0.0197772
0.705391
0.0202246
0.706091
0.0207478
0.706878
0.0213562
0.707779
0.0220611
0.708827
0.0228637
0.710039
0.0237499
0.711423
0.0250162
0.712989
0.0262005
0.714757
0.0273672
0.716722
0.0284514
0.718866
0.0305525
0.721235
0.031781
0.723869
0.0334589
0.034691
0.726801
0.245467
-0.581472
-0.156539
0.324202
-0.503349
0.392819
-0.427893
0.451893
-0.361322
0.502277
-0.302287
0.544938
-0.250563
0.580876
-0.205715
0.611044
-0.167187
0.636328
-0.134376
0.657505
-0.106654
0.675261
-0.0834222
0.690197
-0.0640806
0.702809
-0.0480478
0.713508
-0.0348233
0.722634
-0.023969
0.730467
-0.0150918
0.737235
-0.00783438
0.743134
-0.00188878
0.748329
0.00304842
0.752961
0.00723309
0.757155
0.0109578
0.76051
0.0137544
0.763307
0.0152691
0.765659
0.0162254
0.767722
0.0169558
0.769563
0.017535
0.771303
0.0180525
0.772979
0.0185494
0.774653
0.0190726
0.776369
0.0196383
0.778162
0.0202664
0.78006
0.0209612
0.782093
0.0217135
0.784273
0.0228339
0.786624
0.0238441
0.789175
0.024817
0.791932
0.0256883
0.79489
0.0275975
0.798079
0.0285854
0.801521
0.0300191
0.0309796
0.805227
0.256187
-0.677225
-0.160434
0.340886
-0.588051
0.414646
-0.501653
0.478089
-0.424766
0.532131
-0.356329
0.577818
-0.296251
0.616226
-0.244122
0.648388
-0.19935
0.675266
-0.161254
0.697714
-0.129103
0.716486
-0.102195
0.732248
-0.0798432
0.745557
-0.0613572
0.75688
-0.0461463
0.766604
-0.0336936
0.775049
-0.0235378
0.782479
-0.0152643
0.789106
-0.00851823
0.795115
-0.00296025
0.800652
0.00169208
0.805856
0.00575263
0.810233
0.00938358
0.814021
0.011467
0.817386
0.0128749
0.8204
0.0139325
0.823194
0.0147495
0.825822
0.0154181
0.828376
0.016004
0.830896
0.0165548
0.833435
0.0171023
0.83603
0.0176735
0.838716
0.0182789
0.841522
0.0189123
0.844461
0.0198995
0.847563
0.020748
0.850846
0.0215391
0.854331
0.0222119
0.857994
0.0239397
0.861876
0.024711
0.865971
0.0259303
0.0266689
0.870288
0.268782
-0.780421
-0.165587
0.360008
-0.679279
0.439413
-0.581059
0.507671
-0.493024
0.565768
-0.414426
0.61483
-0.345314
0.656017
-0.28531
0.690446
-0.233779
0.719154
-0.189962
0.743072
-0.153022
0.763024
-0.122146
0.779735
-0.0965546
0.79382
-0.0754425
0.805797
-0.0581251
0.816103
-0.0440003
0.825098
-0.0325332
0.833078
-0.0232462
0.840291
-0.0157318
0.846937
-0.00960727
0.853186
-0.00455671
0.859179
-0.000240419
0.864351
0.00420174
0.868978
0.00684316
0.873145
0.00868533
0.876992
0.0100801
0.880588
0.0111373
0.884035
0.0119715
0.887373
0.0126495
0.890685
0.0132422
0.894005
0.0137821
0.897376
0.0143046
0.900826
0.0148289
0.904388
0.0153543
0.90807
0.0162191
0.911899
0.0169225
0.915888
0.0175527
0.920053
0.0180512
0.92438
0.019616
0.928892
0.0202015
0.93359
0.0212371
0.0217923
0.938467
0.283156
-0.89172
-0.171861
0.381502
-0.777628
0.46708
-0.666637
0.540613
-0.566559
0.603169
-0.476982
0.655959
-0.398105
0.700233
-0.329583
0.737192
-0.270739
0.767959
-0.220729
0.79354
-0.178604
0.81483
-0.143436
0.832616
-0.114341
0.847569
-0.0903971
0.860262
-0.0708186
0.871173
-0.0549136
0.880707
-0.0420677
0.889194
-0.0317361
0.896916
-0.023452
0.904092
-0.0167871
0.910921
-0.0113829
0.917551
-0.006873
0.923391
-0.00163603
0.928693
0.00153165
0.933582
0.00379232
0.938148
0.00549976
0.942488
0.00678683
0.946675
0.0077758
0.950774
0.0085468
0.954828
0.00917695
0.958896
0.00971308
0.963004
0.0101952
0.967183
0.0106489
0.971457
0.0110794
0.975841
0.0118343
0.980352
0.0124106
0.985002
0.0129016
0.989802
0.0132512
0.994746
0.0146694
0.999849
0.0150987
1.00511
0.0159781
0.0163833
1.01051
0.299283
-1.01183
-0.179175
0.405385
-0.883733
0.497693
-0.758947
0.576993
-0.645861
0.644433
-0.544422
0.701319
-0.454992
0.748995
-0.377259
0.78876
-0.310504
0.82182
-0.253789
0.849265
-0.20605
0.872064
-0.166236
0.891067
-0.133345
0.907006
-0.106337
0.920502
-0.0843166
0.932085
-0.0664975
0.942197
-0.0521808
0.951209
-0.0407482
0.959427
-0.0316718
0.967111
-0.02447
0.97447
-0.0187435
0.981686
-0.0140894
0.98811
-0.0080645
0.994023
-0.00438309
0.99953
-0.00172242
1.00474
0.00028819
1.00972
0.00179263
1.01457
0.00292815
1.01933
0.00378651
1.02404
0.00445403
1.02877
0.00498641
1.03353
0.00543333
1.03835
0.00582541
1.04326
0.00617329
1.04826
0.00682932
1.05338
0.00729344
1.05861
0.00766249
1.06398
0.00788419
1.06947
0.00917153
1.0751
0.00946845
1.08086
0.0102149
0.0104935
1.08675
0.317182
-1.14152
-0.187498
0.431726
-0.998279
0.531368
-0.858592
0.616959
-0.731453
0.689736
-0.6172
0.751109
-0.516365
0.802523
-0.428674
0.845378
-0.35336
0.880975
-0.289388
0.910492
-0.235568
0.934974
-0.190718
0.955341
-0.153713
0.972385
-0.123381
0.986783
-0.0987156
0.999111
-0.0788263
1.00985
-0.0629242
1.01942
-0.0503141
1.02815
-0.0404006
1.03632
-0.0326474
1.04419
-0.0266075
1.05194
-0.0218421
1.0589
-0.0150269
1.06535
-0.0108427
1.07142
-0.00778949
1.07719
-0.00548641
1.08275
-0.00377059
1.08816
-0.00249372
1.0935
-0.00155021
1.09879
-0.00084634
1.10409
-0.00031417
1.10942
0.000101223
1.1148
0.000436502
1.12026
0.000708019
1.12582
0.00127285
1.13147
0.00163539
1.13724
0.00189617
1.14311
0.00200553
1.14911
0.00317614
1.15522
0.00335837
1.16144
0.00399041
0.0041597
1.16777
0.336915
-1.28162
-0.196811
0.460641
-1.12201
0.568269
-0.966222
0.660717
-0.823903
0.73932
-0.695804
0.805596
-0.582643
0.861105
-0.484184
0.907354
-0.39961
0.945747
-0.327781
0.977551
-0.267375
1.0039
-0.217067
1.02578
-0.175597
1.04406
-0.141656
1.05946
-0.114117
1.07261
-0.0919785
1.08404
-0.074357
1.0942
-0.0604716
1.10345
-0.0496581
1.11212
-0.0413176
1.12047
-0.0349558
1.12872
-0.0300909
1.13616
-0.0224744
1.1431
-0.0177865
1.14965
-0.0143458
1.15592
-0.011753
1.16197
-0.00983087
1.16789
-0.00841554
1.17372
-0.00739054
1.17953
-0.00665062
1.18532
-0.00612218
1.19116
-0.00573761
1.19705
-0.00545652
1.20301
-0.00525722
1.20906
-0.00477952
1.21521
-0.00451223
1.22145
-0.00435163
1.2278
-0.00434468
1.23426
-0.00328374
1.24082
-0.00320437
1.24748
-0.00267572
-0.00260108
1.25424
0.35856
-1.43306
-0.207136
0.492281
-1.25573
0.608602
-1.08255
0.708522
-0.923824
0.793479
-0.780762
0.865112
-0.654276
0.9251
-0.544173
0.975069
-0.449579
1.01653
-0.369243
1.05085
-0.3017
1.07926
-0.245473
1.10282
-0.199155
1.12245
-0.161293
1.13896
-0.130627
1.15302
-0.106039
1.16521
-0.0865419
1.176
-0.0712667
1.18581
-0.0594708
1.19498
-0.0504929
1.20381
-0.0437827
1.21253
-0.0388164
1.22043
-0.0303738
1.22781
-0.0251726
1.2348
-0.0213383
1.2415
-0.0184553
1.24799
-0.0163283
1.25435
-0.0147774
1.26062
-0.0136754
1.26687
-0.0129028
1.2731
-0.0123795
1.27939
-0.0120268
1.28573
-0.0117995
1.29214
-0.0116698
1.29864
-0.0112776
1.30523
-0.0111013
1.3119
-0.0110364
1.31869
-0.0111254
1.32557
-0.0101717
1.33255
-0.010187
1.33963
-0.00975552
-0.00976564
1.34679
0.382236
-1.5968
-0.218484
0.526828
-1.40033
0.652616
-1.20834
0.760674
-1.03188
0.852561
-0.87265
0.930041
-0.731758
0.994926
-0.609058
1.04897
-0.503621
1.09379
-0.414071
1.13089
-0.338793
1.16156
-0.276144
1.18696
-0.22456
1.2081
-0.182431
1.22583
-0.148358
1.24088
-0.121096
1.25389
-0.099548
1.26537
-0.0827477
1.27577
-0.0698714
1.28546
-0.0601878
1.29477
-0.0530891
1.30395
-0.0480033
1.31228
-0.0387002
1.32007
-0.0329665
1.32746
-0.0287281
1.33455
-0.02555
1.34143
-0.0232147
1.34816
-0.0215301
1.35483
-0.020349
1.36145
-0.0195454
1.3681
-0.0190245
1.37476
-0.0187075
1.3815
-0.0185326
1.38829
-0.0184724
1.39518
-0.0181651
1.40216
-0.018079
1.40923
-0.0181064
1.41638
-0.0182872
1.42365
-0.0174382
1.431
-0.0175424
1.43845
-0.017202
-0.0172906
1.44597
0.408062
-1.77397
-0.23091
0.564497
-1.55676
0.700593
-1.34444
0.817523
-1.14882
0.916966
-0.972095
1.00083
-0.815621
1.07106
-0.679294
1.12956
-0.562117
1.17807
-0.462587
1.2182
-0.378921
1.25136
-0.309303
1.27879
-0.251994
1.30158
-0.205221
1.32066
-0.167431
1.3368
-0.137246
1.3507
-0.113447
1.36292
-0.0949683
1.37394
-0.0808942
1.38417
-0.0704213
1.39396
-0.062877
1.4036
-0.0576403
1.41233
-0.0474327
1.4205
-0.0411403
1.42824
-0.0364799
1.43568
-0.0329922
1.44289
-0.0304426
1.44997
-0.0286145
1.45697
-0.0273526
1.46393
-0.0265137
1.4709
-0.0259972
1.4779
-0.0257115
1.48496
-0.0255918
1.49208
-0.0256015
1.4993
-0.0253802
1.5066
-0.0253835
1.514
-0.025502
1.52148
-0.0257717
1.52907
-0.025027
1.53674
-0.0252159
1.5445
-0.0249631
-0.0251256
1.55233
0.436203
-1.96572
-0.244444
0.605528
-1.7261
0.75286
-1.49177
0.87946
-1.27542
0.987147
-1.07978
1.07798
-0.906453
1.15406
-0.755377
1.21743
-0.625487
1.26998
-0.51514
1.31344
-0.422377
1.34932
-0.34519
1.37899
-0.281657
1.40359
-0.229823
1.42413
-0.187976
1.44147
-0.154589
1.45634
-0.128318
1.46935
-0.107983
1.48103
-0.0925758
1.49182
-0.0812111
1.50209
-0.07315
1.51216
-0.0677145
1.52128
-0.0565496
1.52979
-0.0496612
1.53786
-0.0445496
1.54559
-0.040735
1.5531
-0.0379532
1.56045
-0.0359764
1.56772
-0.0346261
1.57494
-0.0337519
1.5822
-0.0332361
1.58945
-0.0329844
1.59678
-0.0329183
1.60417
-0.0329979
1.61166
-0.0328627
1.61922
-0.0329554
1.62689
-0.0331636
1.63463
-0.033521
1.64249
-0.0328812
1.65042
-0.0331535
1.65845
-0.032987
-0.0332217
1.66654
0.46682
-2.17339
-0.259161
0.650203
-1.90948
0.80978
-1.65135
0.94693
-1.41257
1.06361
-1.19647
1.16206
-1.0049
1.24453
-0.837851
1.31323
-0.694189
1.3702
-0.572116
1.4173
-0.46948
1.45618
-0.384071
1.48829
-0.313763
1.51488
-0.256413
1.53703
-0.21013
1.55567
-0.173233
1.57159
-0.144238
1.58545
-0.121848
1.59782
-0.10495
1.60918
-0.0925725
1.61993
-0.0839035
1.63042
-0.0782055
1.63989
-0.0660193
1.64872
-0.058488
1.65705
-0.0528921
1.66504
-0.0487219
1.67278
-0.0456937
1.68036
-0.0435526
1.68783
-0.0421084
1.69527
-0.0411912
1.7027
-0.0406753
1.71018
-0.0404522
1.71769
-0.0404411
1.72529
-0.0405895
1.73296
-0.0405415
1.74073
-0.0407232
1.74859
-0.0410221
1.75654
-0.0414667
1.76459
-0.040935
1.77273
-0.0412902
1.78094
-0.0412115
-0.0415177
1.78924
0.50012
-2.39839
-0.275111
0.698824
-2.10819
0.871765
-1.82429
1.02043
-1.56123
1.14694
-1.32298
1.2537
-1.11166
1.34316
-0.927313
1.41769
-0.768726
1.47951
-0.633933
1.53061
-0.520579
1.57277
-0.426231
1.60755
-0.348548
1.63631
-0.285177
1.66022
-0.234043
1.68028
-0.193292
1.69733
-0.161294
1.7121
-0.13662
1.7252
-0.11805
1.73714
-0.104517
1.74837
-0.0951307
1.75925
-0.0890879
1.76903
-0.0758082
1.77812
-0.0675802
1.78669
-0.0614569
1.79486
-0.0569022
1.80277
-0.0536014
1.8105
-0.0512807
1.81813
-0.0497275
1.8257
-0.0487591
1.83326
-0.0482351
1.84085
-0.0480383
1.84849
-0.0480775
1.8562
-0.0482953
1.86399
-0.0483354
1.87188
-0.0486079
1.87985
-0.0489989
1.88792
-0.0495328
1.8961
-0.0491128
1.90436
-0.0495531
1.91271
-0.0495646
-0.0499442
1.92114
0.536309
-2.64233
-0.292384
0.751745
-2.32362
0.93927
-2.01182
1.10051
-1.72247
1.23776
-1.46023
1.35361
-1.22751
1.45072
-1.02442
1.53164
-0.849652
1.59876
-0.701056
1.65424
-0.576058
1.7
-0.471988
1.73771
-0.386267
1.76886
-0.316323
1.79469
-0.259875
1.81628
-0.214889
1.83456
-0.179573
1.85029
-0.15236
1.86415
-0.13191
1.87669
-0.117055
1.88837
-0.106819
1.89961
-0.100329
1.90967
-0.0858737
1.91897
-0.0768838
1.9277
-0.070183
1.936
-0.0652037
1.944
-0.0616015
1.95181
-0.0590779
1.95948
-0.0574004
1.9671
-0.0563693
1.9747
-0.0558308
1.98233
-0.0556545
1.98999
-0.0557431
1.99773
-0.0560267
2.00555
-0.0561562
2.01347
-0.0565205
2.02147
-0.0570052
2.02957
-0.0576291
2.03778
-0.0573248
2.04608
-0.057852
2.05447
-0.0579571
-0.0584123
2.06294
0.575643
-2.90691
-0.311049
0.809342
-2.55733
1.01281
-2.21529
1.18779
-1.89746
1.33679
-1.60923
1.4626
-1.35332
1.56808
-1.12991
1.656
-0.937579
1.72894
-0.773994
1.78922
-0.636341
1.83891
-0.521686
1.87985
-0.427202
1.91359
-0.350073
1.94152
-0.287802
1.96478
-0.238155
1.98438
-0.199169
2.00114
-0.169127
2.01579
-0.146558
2.02892
-0.130187
2.04104
-0.118945
2.05259
-0.111884
2.06288
-0.0961616
2.07233
-0.0863343
2.08114
-0.0789973
2.08948
-0.0735468
2.09749
-0.0696084
2.10527
-0.0668549
2.1129
-0.0650336
2.12046
-0.0639247
2.128
-0.0633607
2.13554
-0.0631988
2.14314
-0.0633312
2.15079
-0.0636788
2.15854
-0.0638978
2.16637
-0.0643549
2.1743
-0.0649337
2.18232
-0.06565
2.19047
-0.0654655
2.19869
-0.0660828
2.20702
-0.0662852
-0.0668199
2.21543
0.618379
-3.19409
-0.331212
0.872052
-2.811
1.09294
-2.43619
1.28297
-2.08749
1.44482
-1.77109
1.58153
-1.49003
1.6962
-1.24458
1.7918
-1.03318
1.87111
-0.853314
1.93666
-0.701892
1.99068
-0.575711
2.03514
-0.471661
2.07174
-0.386675
2.10195
-0.318012
2.12702
-0.263232
2.14803
-0.22018
2.16588
-0.18698
2.18134
-0.162021
2.19506
-0.14391
2.20759
-0.131478
2.2194
-0.123695
2.22984
-0.106601
2.23935
-0.0958519
2.24816
-0.0878094
2.25644
-0.0818359
2.26435
-0.0775184
2.27199
-0.0745045
2.27947
-0.0725138
2.28685
-0.0713101
2.2942
-0.0707069
2.30155
-0.0705498
2.30894
-0.070719
2.31638
-0.0711274
2.32392
-0.0714337
2.33154
-0.0719829
2.33927
-0.0726573
2.34708
-0.0734675
2.35502
-0.0734081
2.36305
-0.074119
2.3712
-0.0744236
-0.0750422
2.37941
0.66483
-3.50595
-0.35296
0.940343
-3.08652
1.18031
-2.67616
1.38681
-2.29399
1.56275
-1.94703
1.71142
-1.6387
1.83615
-1.36931
1.94018
-1.13721
2.0265
-0.939639
2.09784
-0.773231
2.15661
-0.634482
2.20493
-0.519986
2.24465
-0.426394
2.27734
-0.350713
2.30438
-0.29027
2.32691
-0.24271
2.34591
-0.205981
2.3622
-0.178321
2.3765
-0.15821
2.38939
-0.144371
2.40138
-0.135684
2.41187
-0.117108
2.42135
-0.105337
2.43004
-0.0965112
2.43815
-0.0899505
2.44583
-0.0852058
2.45321
-0.081891
2.46038
-0.0797023
2.46745
-0.0783795
2.47446
-0.077721
2.48146
-0.0775562
2.48849
-0.0777549
2.49558
-0.078219
2.50275
-0.0786103
2.51002
-0.0792515
2.51738
-0.0800228
2.52484
-0.0809291
2.53243
-0.081
2.54012
-0.0818083
2.54792
-0.0822206
-0.0829276
2.5558
0.715316
-3.84486
-0.376414
1.01476
-3.38595
1.27562
-2.93703
1.50017
-2.51854
1.69156
-2.13843
1.85335
-1.80049
1.98914
-1.50511
2.10243
-1.2505
2.19646
-1.03367
2.27416
-0.850933
2.33814
-0.698471
2.39071
-0.572553
2.43384
-0.46953
2.46925
-0.38613
2.49842
-0.319433
2.52257
-0.266866
2.54277
-0.226186
2.55992
-0.195471
2.57477
-0.17306
2.58795
-0.15756
2.60002
-0.147755
2.61047
-0.12757
2.61979
-0.114665
2.62823
-0.104965
2.63601
-0.097745
2.64331
-0.0925145
2.65025
-0.0888543
2.65697
-0.0864314
2.66354
-0.0849638
2.67003
-0.084229
2.67651
-0.0840424
2.68301
-0.0842595
2.68955
-0.0847735
2.69618
-0.085244
2.7029
-0.0859771
2.70972
-0.0868462
2.71664
-0.0878504
2.7237
-0.0880568
2.73085
-0.0889663
2.73812
-0.0894917
-0.0902925
2.74548
0.770218
-4.21339
-0.401682
1.09587
-3.71162
1.37965
-3.2208
1.624
-2.7629
1.83236
-2.34679
2.00856
-1.97669
2.15651
-1.65306
2.27999
-1.37398
2.38249
-1.13617
2.4672
-0.935636
2.53692
-0.7682
2.59415
-0.629781
2.64102
-0.516409
2.6794
-0.42451
2.71086
-0.350898
2.73676
-0.292761
2.75822
-0.247655
2.77623
-0.213477
2.79159
-0.18842
2.80498
-0.170962
2.817
-0.159782
2.82728
-0.137848
2.83628
-0.123684
2.84431
-0.113004
2.85158
-0.105042
2.85831
-0.0992577
2.86463
-0.0951992
2.87068
-0.0925002
2.87655
-0.0908549
2.88233
-0.0900196
2.88807
-0.0897932
2.89382
-0.0900165
2.89961
-0.0905719
2.90548
-0.0911196
2.91144
-0.0919435
2.9175
-0.0929106
2.92366
-0.0940139
2.92996
-0.0943616
2.93637
-0.0953768
2.9429
-0.096022
-0.0969233
2.94953
0.829934
-4.61443
-0.428905
1.18436
-4.06604
1.49328
-3.52973
1.75939
-3.029
1.98639
-2.57379
2.17844
-2.16875
2.33978
-1.8144
2.47447
-1.50868
2.58631
-1.24801
2.67873
-1.02806
2.75478
-0.844247
2.81713
-0.692135
2.86811
-0.567392
2.90972
-0.466127
2.94368
-0.384855
2.97143
-0.320518
2.99422
-0.270441
3.01307
-0.232337
3.02888
-0.204231
3.04238
-0.184467
3.05421
-0.171607
3.06412
-0.147774
3.07264
-0.132202
3.08004