/*--------------------------------*- C++ -*----------------------------------*\
| =========                 |                                                 |
| \\      /  F ield         | OpenFOAM: The Open Source CFD Toolbox           |
|  \\    /   O peration     | Version:  2312                                  |
|   \\  /    A nd           | Website:  www.openfoam.com                      |
|    \\/     M anipulation  |                                                 |
\*---------------------------------------------------------------------------*/
FoamFile
{
    version     2.0;
    format      ascii;
    arch        "LSB;label=32;scalar=64";
    class       volScalarField;
    location    "50";
    object      turbulenceProperties:k;
}
// * * * * * * * * * * * * * * * * * * * * * * * * * * * * * * * * * * * * * //

dimensions      [0 2 -2 0 0 0 0];

internalField   nonuniform List<scalar> 
11040
(
0.986348
2.21959
3.8319
5.77273
8.56371
14.1451
26.8894
34.9828
37.3247
38.4344
39.8335
41.4174
42.8392
43.8211
44.2521
44.1474
43.5572
42.494
40.9888
39.1175
36.8689
34.3613
31.8635
29.3381
26.6797
23.9287
21.1708
18.5453
16.1329
13.8358
11.5088
9.09706
6.80794
5.26185
4.7474
4.29197
2.75212
0.573005
0.358986
0.519256
1.05077
0.173326
0.202119
0.27333
0.473542
1.0896
2.39573
5.19347
8.86034
12.1452
14.8152
16.8769
18.3226
19.0921
19.0867
18.3487
17.0742
15.5231
13.9753
12.6134
11.4494
10.4795
9.69324
9.03735
8.47583
8.04293
7.69011
7.34379
6.96728
6.53832
6.09849
5.66329
5.27327
4.94288
4.40902
3.24826
1.76393
1.05847
1.40442
3.29911
2.80794
5.67477
0.101248
0.0694468
0.0657045
0.061564
0.0475016
0.0220001
0.0433967
0.17919
0.40219
0.686208
1.0617
1.61558
2.43953
3.59146
5.03736
6.64932
8.2414
9.60282
10.5574
11.0343
11.0643
10.7835
10.3648
9.88223
9.41581
8.96272
8.53333
8.11571
7.71122
7.30824
6.91862
6.62575
6.43792
5.91846
4.60153
3.14793
3.00911
4.43079
5.38698
3.82837
4.33001
0.069871
0.0661681
0.0601806
0.0511189
0.0413406
0.032397
0.0221064
0.0128492
0.00716418
0.00428683
0.0028016
0.00188235
0.00142702
0.00678423
0.0357167
0.119633
0.304876
0.657894
1.24649
2.10593
3.22327
4.45258
5.59868
6.57398
7.3548
7.90611
8.24363
8.39942
8.41898
8.34118
8.21152
8.11399
8.00781
7.44952
6.23724
5.28558
5.6553
6.79147
6.89662
4.98233
5.04117
0.0478677
0.0465496
0.0421
0.0358272
0.0297581
0.0253775
0.022341
0.0193597
0.0160489
0.0128901
0.0102151
0.00795039
0.00590212
0.00403464
0.00107796
0.000227227
0.000301247
0.000796435
0.00267763
0.0075145
0.0458942
0.170282
0.424758
0.84716
1.46418
2.27383
3.23719
4.2902
5.355
6.3531
7.22718
7.95383
8.42703
8.33966
7.71031
7.32325
7.86264
8.68776
8.49612
6.71063
6.68784
0.0323229
0.0327714
0.0321926
0.0300267
0.0267792
0.0233314
0.0202767
0.0176455
0.0151797
0.012753
0.0105014
0.00865677
0.00733251
0.00642491
0.00564662
0.00491872
0.00401955
0.00281652
0.000980317
7.0161e-05
0.000438848
0.00120057
0.00249061
0.00517958
0.016143
0.062767
0.185645
0.44162
0.900502
1.63746
2.70804
4.08509
5.56158
6.76853
7.52882
8.15831
9.06612
9.8897
9.77271
8.48122
8.37233
0.0222618
0.0229469
0.0234552
0.022989
0.0215227
0.0194858
0.0173329
0.0152999
0.0133917
0.01156
0.00984154
0.00833546
0.00712378
0.00621993
0.00557839
0.00508061
0.00466777
0.00425844
0.00380316
0.00321087
0.00250868
0.00184694
0.000771237
0.00088377
0.002098
1.28885e-05
3.13279e-05
0.000524152
0.00931959
0.0516064
0.18887
0.547754
1.26845
2.4244
3.98073
5.80867
7.70747
9.24332
9.72377
9.02995
8.92528
0.0154878
0.0160344
0.0167406
0.017049
0.0167203
0.0158545
0.0146868
0.0133989
0.012055
0.0106616
0.00925746
0.00793048
0.00677903
0.00585452
0.00514295
0.00460598
0.00420126
0.00387344
0.00357524
0.00329615
0.00300595
0.00275558
0.00252468
0.00215855
0.00166697
0.00124023
0.000280302
0.000152473
0.000539283
0.00276609
0.00192871
0.00663374
0.0387283
0.183524
0.620467
1.60945
3.21927
5.09455
6.40608
6.56519
6.88244
0.0108927
0.0112709
0.0118505
0.012342
0.0125239
0.0123402
0.0118498
0.0111477
0.0103006
0.00935208
0.00834911
0.00735604
0.0064472
0.00567388
0.0050432
0.00453898
0.00414131
0.00382275
0.00354589
0.00328629
0.00305038
0.00286136
0.00275582
0.00271366
0.00259814
0.00243574
0.00217045
0.00172691
0.00123972
0.000447383
1.48768e-05
0.000323884
0.00111099
0.00659975
0.00114584
0.0602871
0.344469
1.02086
1.85819
2.21604
2.67241
0.00770687
0.00795383
0.00835862
0.00879254
0.00911697
0.0092494
0.00917112
0.00890527
0.00848666
0.00794454
0.00731291
0.00663395
0.00595811
0.00533307
0.00478295
0.00431292
0.00392281
0.0036072
0.00334806
0.00311583
0.00289262
0.00268964
0.00252736
0.00241887
0.00236022
0.00231831
0.00230073
0.00225747
0.00218364
0.00189667
0.0013887
0.000988565
0.000189948
3.29227e-05
2.5435e-05
0.000936267
7.67888e-05
0.0341245
0.138295
0.249137
0.353285
0.0054738
0.00563394
0.00589897
0.00621889
0.00652164
0.00674674
0.00685803
0.00684265
0.00670329
0.00645126
0.0061057
0.005692
0.0052428
0.00479453
0.004373
0.00399281
0.00366171
0.00338301
0.00315179
0.00295011
0.00275677
0.00256989
0.00240142
0.00226458
0.00217259
0.00212216
0.00209539
0.00207662
0.00206198
0.00204089
0.00197514
0.001853
0.00159977
0.00125441
0.000309284
2.51201e-05
6.91319e-06
0.00102654
0.00631192
0.00168332
0.0210976
0.00389532
0.00399897
0.00416725
0.00438483
0.00461669
0.00482811
0.00499081
0.00508514
0.00510015
0.00503271
0.00488989
0.00468239
0.0044271
0.00414571
0.00385823
0.00357984
0.00332043
0.00308744
0.00288361
0.00270391
0.00253784
0.00238092
0.0022353
0.00210771
0.0020085
0.00194564
0.00190946
0.00188128
0.00184637
0.00180292
0.00173701
0.00164129
0.00158227
0.00159975
0.00148523
0.000964282
0.000324469
5.81767e-06
1.27177e-05
4.19232e-05
1.452e-06
0.0027742
0.00284133
0.00294725
0.00308997
0.00325305
0.00341835
0.00356916
0.0036905
0.00377014
0.00379979
0.00377711
0.00370443
0.00358777
0.00343817
0.00326836
0.00308909
0.00290926
0.00273563
0.00257296
0.00242301
0.00228385
0.00215525
0.00203564
0.0019255
0.001831
0.00175651
0.00169973
0.00165482
0.00161069
0.00156051
0.00149644
0.00140782
0.00130702
0.00125599
0.00130097
0.00133551
0.00122827
0.00104397
0.000960072
0.000569581
0.000104388
0.00197506
0.00201888
0.00208546
0.00217756
0.00228748
0.00240594
0.00252421
0.00263333
0.00272451
0.00278992
0.00282484
0.00282705
0.002797
0.0027382
0.00265637
0.00255753
0.0024472
0.00233029
0.0022118
0.00209531
0.00198326
0.00187905
0.00178215
0.00169044
0.00160575
0.00152878
0.00146315
0.00140901
0.00136213
0.00131773
0.00127199
0.00121831
0.00114956
0.00108301
0.00106321
0.00110088
0.00114113
0.00119013
0.00140992
0.00178831
0.00142184
0.00140467
0.00143341
0.00147548
0.00153451
0.00160699
0.00168813
0.0017735
0.00185835
0.00193744
0.00200534
0.00205779
0.00209167
0.00210504
0.0020977
0.00207077
0.00202693
0.00196915
0.00190082
0.00182542
0.00174622
0.00166534
0.00158741
0.00151416
0.00144338
0.00137567
0.00131193
0.00125461
0.00120417
0.00116029
0.00112148
0.00108632
0.00105214
0.00101476
0.000973131
0.000940968
0.000940638
0.000966851
0.000978186
0.00100492
0.00120954
0.00141711
0.000997747
0.00101663
0.00104341
0.00108106
0.00112814
0.00118223
0.00124105
0.00130214
0.00136263
0.00141927
0.00146905
0.00150942
0.00153824
0.00155415
0.00155678
0.00154653
0.00152492
0.00149358
0.00145435
0.00140933
0.00135948
0.00130797
0.00125734
0.00120703
0.00115751
0.00110957
0.00106425
0.00102194
0.000984489
0.000951681
0.000922912
0.000897053
0.000872325
0.000846141
0.000819356
0.00080036
0.000795093
0.000794661
0.000781342
0.000784985
0.000837929
0.000709515
0.00072179
0.000738927
0.00076284
0.000793155
0.000828662
0.000868141
0.000910293
0.000953586
0.000996215
0.00103638
0.00107246
0.00110287
0.00112636
0.00114206
0.00114955
0.00114872
0.00114004
0.00112413
0.00110214
0.00107433
0.0010426
0.00100927
0.000974427
0.000938933
0.00090357
0.000868719
0.000836325
0.000806727
0.000780003
0.000755646
0.00073299
0.000710767
0.000687936
0.000663697
0.000639071
0.000616995
0.00060189
0.000588511
0.000569631
0.000556183
0.000511138
0.000519201
0.000530431
0.000545948
0.000565816
0.000589431
0.000616064
0.000644957
0.000675256
0.000705947
0.000735988
0.000764402
0.000790162
0.000812293
0.000829936
0.000842447
0.000849404
0.000850588
0.000845939
0.00083591
0.000820598
0.000801218
0.000779214
0.000755317
0.000730234
0.000704771
0.00067937
0.000654741
0.000631016
0.000608126
0.000585923
0.000564215
0.000542587
0.0005206
0.000498003
0.000474901
0.000452232
0.000431639
0.000413549
0.000399197
0.000384826
0.00037706
0.000382582
0.000390247
0.000400706
0.000414199
0.000430405
0.000448849
0.000469019
0.000490378
0.000512283
0.000534082
0.000555131
0.00057476
0.000592281
0.000607045
0.000618523
0.000626305
0.000630161
0.000629956
0.000625834
0.000617352
0.000605277
0.000591063
0.000574989
0.000557728
0.000539869
0.000521211
0.000502139
0.000482963
0.000463732
0.000444606
0.000425596
0.000406766
0.000387878
0.000368867
0.000349686
0.000330876
0.000312962
0.000295421
0.00028161
0.000267953
0.000285036
0.000288927
0.000294309
0.00030155
0.00031096
0.000322375
0.000335459
0.00034985
0.000365186
0.000381049
0.000397017
0.000412683
0.000427615
0.000441351
0.000453463
0.000463533
0.000471223
0.00047623
0.000478327
0.000477469
0.000473093
0.000465738
0.000456365
0.000445392
0.000433348
0.000420259
0.000406429
0.000391857
0.000376927
0.000361567
0.000346161
0.000330795
0.000315603
0.000300503
0.000285464
0.000270363
0.000255463
0.000241144
0.000226561
0.000214138
0.000201325
0.000219586
0.000222358
0.000226207
0.000231324
0.000238026
0.000246243
0.000255713
0.00026618
0.000277378
0.00028903
0.000300845
0.000312558
0.000323877
0.000334499
0.000344113
0.000352425
0.000359171
0.000364119
0.000367086
0.000368062
0.000366603
0.0003626
0.00035693
0.000349696
0.000341224
0.000331733
0.000321434
0.000310272
0.000298723
0.000287232
0.000275494
0.000263641
0.00025183
0.000240011
0.000228101
0.000216054
0.00020391
0.000191918
0.000179542
0.000168387
0.000156364
0.000171769
0.000173774
0.000176579
0.000180262
0.000185128
0.000191142
0.000198105
0.000205812
0.000214067
0.000222666
0.000231397
0.000240073
0.000248485
0.000256423
0.000263663
0.00027001
0.000275246
0.00027922
0.000281741
0.000282795
0.000282067
0.000279606
0.000275835
0.000270846
0.000264808
0.000257833
0.000250117
0.000241962
0.000233421
0.000224605
0.000215595
0.000206466
0.000197199
0.000187751
0.000178103
0.000168289
0.000158385
0.000148499
0.000138334
0.000129263
0.000119195
0.000136044
0.000137518
0.000139603
0.000142301
0.000145895
0.000150369
0.000155567
0.000161324
0.000167491
0.000173912
0.00018043
0.000186906
0.000193188
0.000199127
0.000204559
0.000209342
0.000213326
0.00021638
0.000218376
0.000219265
0.000218798
0.000216913
0.000213944
0.00020997
0.00020512
0.00019963
0.000193632
0.000187311
0.000180635
0.000173692
0.000166614
0.000159342
0.000151971
0.000144543
0.000137078
0.000129623
0.000122314
0.00011519
0.000107989
0.000102008
9.4892e-05
0.000108872
0.000109982
0.000111554
0.000113566
0.000116263
0.000119645
0.000123583
0.000127944
0.000132612
0.000137468
0.000142391
0.000147276
0.000152011
0.000156485
0.000160582
0.000164196
0.000167221
0.000169569
0.000171133
0.000171897
0.000171602
0.000170244
0.000168045
0.000165088
0.00016153
0.000157508
0.000153067
0.000148295
0.000143234
0.000137806
0.000132362
0.000126996
0.000121599
0.000116246
0.000110956
0.000105729
0.000100661
9.57788e-05
9.08497e-05
8.67813e-05
8.22133e-05
8.78945e-05
8.87403e-05
8.99479e-05
9.14733e-05
9.35314e-05
9.61248e-05
9.91484e-05
0.000102493
0.000106069
0.00010978
0.000113539
0.000117258
0.00012086
0.000124253
0.000127363
0.000130102
0.000132403
0.000134188
0.00013539
0.000135973
0.00013577
0.000134781
0.000133181
0.000131071
0.000128542
0.000125619
0.000122362
0.000118787
0.000115041
0.000111046
0.000107036
0.00010321
9.94106e-05
9.56344e-05
9.1888e-05
8.81842e-05
8.45917e-05
8.11336e-05
7.7709e-05
7.4602e-05
7.23017e-05
7.14907e-05
7.21443e-05
7.30884e-05
7.42672e-05
7.58615e-05
7.78785e-05
8.02306e-05
8.28286e-05
8.55993e-05
8.84675e-05
9.13647e-05
9.42229e-05
9.69826e-05
9.95748e-05
0.000101944
0.000104026
0.000105773
0.000107127
0.000108039
0.000108487
0.000108352
0.000107622
0.000106444
0.000104885
0.000102979
0.000100761
9.82948e-05
9.56144e-05
9.28361e-05
9.00188e-05
8.70496e-05
8.41342e-05
8.14259e-05
7.86511e-05
7.58951e-05
7.32217e-05
7.06722e-05
6.82512e-05
6.59717e-05
6.36877e-05
6.27977e-05
5.85192e-05
5.90387e-05
5.97876e-05
6.07116e-05
6.19657e-05
6.35559e-05
6.541e-05
6.74533e-05
6.96264e-05
7.18686e-05
7.41256e-05
7.63441e-05
7.84774e-05
8.04738e-05
8.22896e-05
8.38801e-05
8.52072e-05
8.62307e-05
8.69192e-05
8.7254e-05
8.71575e-05
8.66105e-05
8.57402e-05
8.45752e-05
8.31573e-05
8.15392e-05
7.97491e-05
7.78389e-05
7.58527e-05
7.38196e-05
7.16029e-05
6.94241e-05
6.74281e-05
6.53981e-05
6.34273e-05
6.15794e-05
5.9869e-05
5.82745e-05
5.68725e-05
5.53385e-05
5.533e-05
4.81715e-05
4.85833e-05
4.91861e-05
4.99237e-05
5.0924e-05
5.21962e-05
5.36764e-05
5.53047e-05
5.70284e-05
5.88023e-05
6.05787e-05
6.23195e-05
6.39836e-05
6.55356e-05
6.69384e-05
6.81629e-05
6.91786e-05
6.99602e-05
7.04829e-05
7.07367e-05
7.06565e-05
7.0239e-05
6.95888e-05
6.87286e-05
6.7715e-05
6.65705e-05
6.5322e-05
6.39949e-05
6.25742e-05
6.1107e-05
5.94846e-05
5.79337e-05
5.64957e-05
5.51034e-05
5.37886e-05
5.25786e-05
5.14766e-05
5.04574e-05
4.96411e-05
4.86063e-05
4.92028e-05
3.9838e-05
4.0173e-05
4.06624e-05
4.12606e-05
4.20717e-05
4.31033e-05
4.43012e-05
4.56149e-05
4.69996e-05
4.84194e-05
4.98343e-05
5.12155e-05
5.25293e-05
5.37493e-05
5.4845e-05
5.57972e-05
5.65827e-05
5.71867e-05
5.75923e-05
5.77926e-05
5.77457e-05
5.74556e-05
5.69953e-05
5.63848e-05
5.56433e-05
5.4804e-05
5.38797e-05
5.28984e-05
5.1869e-05
5.08544e-05
4.97922e-05
4.87233e-05
4.77429e-05
4.69084e-05
4.60728e-05
4.528e-05
4.45565e-05
4.38839e-05
4.34105e-05
4.26451e-05
4.35677e-05
3.30823e-05
3.33531e-05
3.37564e-05
3.42489e-05
3.49166e-05
3.57644e-05
3.67466e-05
3.78201e-05
3.89472e-05
4.00973e-05
4.12383e-05
4.23469e-05
4.33972e-05
4.43681e-05
4.52369e-05
4.5988e-05
4.66049e-05
4.70758e-05
4.73903e-05
4.75448e-05
4.7509e-05
4.73036e-05
4.69746e-05
4.6535e-05
4.60039e-05
4.53976e-05
4.47478e-05
4.40796e-05
4.3403e-05
4.27409e-05
4.20621e-05
4.13881e-05
4.08024e-05
4.02498e-05
3.96842e-05
3.91482e-05
3.86648e-05
3.82078e-05
3.7941e-05
3.73456e-05
3.84191e-05
2.75675e-05
2.77879e-05
2.81224e-05
2.8534e-05
2.9092e-05
2.97971e-05
3.06131e-05
3.15009e-05
3.24306e-05
3.33728e-05
3.43047e-05
3.52038e-05
3.60534e-05
3.68345e-05
3.75328e-05
3.81333e-05
3.86254e-05
3.89987e-05
3.92458e-05
3.93629e-05
3.93276e-05
3.91626e-05
3.89131e-05
3.85999e-05
3.82364e-05
3.78419e-05
3.74241e-05
3.69999e-05
3.65826e-05
3.61638e-05
3.57412e-05
3.53288e-05
3.50053e-05
3.46344e-05
3.42838e-05
3.39558e-05
3.36568e-05
3.33557e-05
3.32245e-05
3.27482e-05
3.38677e-05
2.30393e-05
2.32188e-05
2.34998e-05
2.38485e-05
2.43214e-05
2.49156e-05
2.5601e-05
2.63438e-05
2.71194e-05
2.79016e-05
2.86719e-05
2.941e-05
3.01052e-05
3.0741e-05
3.1309e-05
3.17953e-05
3.2195e-05
3.24974e-05
3.27005e-05
3.28008e-05
3.27814e-05
3.26692e-05
3.24962e-05
3.22778e-05
3.20286e-05
3.17582e-05
3.14786e-05
3.11894e-05
3.09136e-05
3.06464e-05
3.04286e-05
3.01716e-05
3.00408e-05
2.99233e-05
2.9735e-05
2.95573e-05
2.93877e-05
2.91953e-05
2.91497e-05
2.87521e-05
2.98466e-05
1.93008e-05
1.94486e-05
1.96867e-05
1.99885e-05
2.03947e-05
2.09013e-05
2.14826e-05
2.21104e-05
2.27638e-05
2.34211e-05
2.40656e-05
2.46812e-05
2.52577e-05
2.57838e-05
2.62524e-05
2.66554e-05
2.69881e-05
2.72433e-05
2.74197e-05
2.75102e-05
2.7516e-05
2.74448e-05
2.73328e-05
2.71824e-05
2.70077e-05
2.68222e-05
2.66355e-05
2.64567e-05
2.62886e-05
2.61389e-05
2.60209e-05
2.58902e-05
2.5876e-05
2.5881e-05
2.57624e-05
2.56674e-05
2.55871e-05
2.54848e-05
2.55099e-05
2.51823e-05
2.62383e-05
1.61985e-05
1.63214e-05
1.65274e-05
1.6794e-05
1.71477e-05
1.75864e-05
1.80834e-05
1.8619e-05
1.91728e-05
1.9731e-05
2.02757e-05
2.0797e-05
2.12819e-05
2.17253e-05
2.21186e-05
2.24601e-05
2.27445e-05
2.29693e-05
2.31323e-05
2.32241e-05
2.3246e-05
2.32097e-05
2.31378e-05
2.30404e-05
2.29267e-05
2.28087e-05
2.26955e-05
2.2589e-05
2.25004e-05
2.24239e-05
2.23681e-05
2.22958e-05
2.23387e-05
2.23861e-05
2.23021e-05
2.226e-05
2.22401e-05
2.2206e-05
2.22864e-05
2.2032e-05
2.30705e-05
1.36117e-05
1.37159e-05
1.38982e-05
1.41378e-05
1.44534e-05
1.4837e-05
1.52675e-05
1.57273e-05
1.62011e-05
1.66772e-05
1.7142e-05
1.75866e-05
1.8001e-05
1.83798e-05
1.87165e-05
1.901e-05
1.92573e-05
1.9458e-05
1.96109e-05
1.97114e-05
1.97588e-05
1.97593e-05
1.97313e-05
1.96749e-05
1.96035e-05
1.95262e-05
1.9452e-05
1.93907e-05
1.93343e-05
1.92924e-05
1.92646e-05
1.92404e-05
1.92854e-05
1.93517e-05
1.932e-05
1.93222e-05
1.93398e-05
1.93438e-05
1.94417e-05
1.92286e-05
2.02354e-05
1.14466e-05
1.15364e-05
1.1701e-05
1.19216e-05
1.2206e-05
1.25468e-05
1.29241e-05
1.3323e-05
1.37318e-05
1.41406e-05
1.45395e-05
1.49211e-05
1.5278e-05
1.56053e-05
1.58979e-05
1.61543e-05
1.63736e-05
1.65556e-05
1.67025e-05
1.68097e-05
1.68778e-05
1.69096e-05
1.69111e-05
1.68875e-05
1.68432e-05
1.67888e-05
1.67321e-05
1.66765e-05
1.66189e-05
1.65782e-05
1.65578e-05
1.65784e-05
1.65881e-05
1.67117e-05
1.68111e-05
1.68016e-05
1.68355e-05
1.6865e-05
1.69668e-05
1.67789e-05
1.77167e-05
9.62875e-06
9.70783e-06
9.85916e-06
1.00636e-05
1.03227e-05
1.06279e-05
1.09618e-05
1.13125e-05
1.16696e-05
1.20248e-05
1.23703e-05
1.27e-05
1.30089e-05
1.32929e-05
1.35493e-05
1.37759e-05
1.39725e-05
1.41403e-05
1.42792e-05
1.43922e-05
1.44714e-05
1.45234e-05
1.45526e-05
1.45547e-05
1.4539e-05
1.45091e-05
1.44641e-05
1.4404e-05
1.43508e-05
1.43151e-05
1.43043e-05
1.43237e-05
1.43488e-05
1.44642e-05
1.45623e-05
1.45724e-05
1.46269e-05
1.4678e-05
1.47849e-05
1.46439e-05
1.54941e-05
8.09904e-06
8.17025e-06
8.31103e-06
8.50071e-06
8.73723e-06
9.01012e-06
9.3082e-06
9.61895e-06
9.93529e-06
1.02484e-05
1.05529e-05
1.08416e-05
1.11123e-05
1.136e-05
1.15849e-05
1.17846e-05
1.19604e-05
1.21112e-05
1.22397e-05
1.2345e-05
1.24297e-05
1.24983e-05
1.25506e-05
1.25881e-05
1.26052e-05
1.2601e-05
1.25741e-05
1.25405e-05
1.25013e-05
1.24719e-05
1.24617e-05
1.2465e-05
1.24691e-05
1.2539e-05
1.26067e-05
1.26196e-05
1.26755e-05
1.27354e-05
1.28421e-05
1.27466e-05
1.35091e-05
6.81013e-06
6.87548e-06
7.00654e-06
7.18278e-06
7.39649e-06
7.64127e-06
7.9061e-06
8.18196e-06
8.46297e-06
8.74256e-06
9.01516e-06
9.27428e-06
9.51627e-06
9.73731e-06
9.93654e-06
1.01134e-05
1.02692e-05
1.04049e-05
1.05221e-05
1.06229e-05
1.0704e-05
1.07735e-05
1.08316e-05
1.08769e-05
1.09092e-05
1.09247e-05
1.09311e-05
1.09296e-05
1.09234e-05
1.09086e-05
1.08832e-05
1.0864e-05
1.0853e-05
1.08727e-05
1.08943e-05
1.09027e-05
1.0942e-05
1.09866e-05
1.10695e-05
1.10091e-05
1.16188e-05
5.72427e-06
5.78505e-06
5.90672e-06
6.06764e-06
6.26024e-06
6.47741e-06
6.71172e-06
6.95567e-06
7.20427e-06
7.45336e-06
7.69826e-06
7.93397e-06
8.15575e-06
8.35953e-06
8.54243e-06
8.70323e-06
8.84286e-06
8.96407e-06
9.06941e-06
9.16145e-06
9.24564e-06
9.31964e-06
9.39052e-06
9.45095e-06
9.49865e-06
9.5439e-06
9.58625e-06
9.62103e-06
9.64524e-06
9.65988e-06
9.6627e-06
9.65861e-06
9.65439e-06
9.66583e-06
9.66651e-06
9.65749e-06
9.67015e-06
9.68717e-06
9.72957e-06
9.68526e-06
1.01362e-05
4.81092e-06
4.86858e-06
4.98042e-06
5.12489e-06
5.29306e-06
5.48204e-06
5.68669e-06
5.90079e-06
6.12077e-06
6.34277e-06
6.56229e-06
6.77586e-06
6.97955e-06
7.1702e-06
7.34386e-06
7.49818e-06
7.63088e-06
7.7421e-06
7.83296e-06
7.90612e-06
7.96429e-06
8.01408e-06
8.05453e-06
8.08852e-06
8.123e-06
8.1566e-06
8.18734e-06
8.21771e-06
8.2413e-06
8.25185e-06
8.26253e-06
8.27871e-06
8.29762e-06
8.31023e-06
8.32399e-06
8.33848e-06
8.35097e-06
8.36301e-06
8.38451e-06
8.36899e-06
8.62162e-06
4.04238e-06
4.09918e-06
4.20331e-06
4.33101e-06
4.47374e-06
4.63154e-06
4.8013e-06
4.98231e-06
5.17218e-06
5.36885e-06
5.56769e-06
5.76455e-06
5.95409e-06
6.13331e-06
6.29922e-06
6.45105e-06
6.5882e-06
6.71115e-06
6.82106e-06
6.91735e-06
7.00457e-06
7.0767e-06
7.14134e-06
7.20237e-06
7.26039e-06
7.31562e-06
7.36811e-06
7.40988e-06
7.44279e-06
7.4727e-06
7.4953e-06
7.50688e-06
7.51778e-06
7.53253e-06
7.53096e-06
7.5221e-06
7.51671e-06
7.50641e-06
7.492e-06
7.45382e-06
7.59315e-06
3.39378e-06
3.44901e-06
3.54642e-06
3.66158e-06
3.78516e-06
3.91599e-06
4.05275e-06
4.19535e-06
4.34449e-06
4.50185e-06
4.66792e-06
4.8417e-06
5.01941e-06
5.1952e-06
5.36161e-06
5.51133e-06
5.63865e-06
5.73982e-06
5.81405e-06
5.86495e-06
5.89082e-06
5.90045e-06
5.90174e-06
5.89977e-06
5.89805e-06
5.89941e-06
5.902e-06
5.90962e-06
5.92413e-06
5.94175e-06
5.96442e-06
5.98915e-06
6.01121e-06
6.03976e-06
6.05506e-06
6.06676e-06
6.09267e-06
6.11115e-06
6.10791e-06
6.12229e-06
6.14843e-06
2.8451e-06
2.8915e-06
2.97435e-06
3.07316e-06
3.18231e-06
3.30042e-06
3.42411e-06
3.54919e-06
3.67243e-06
3.79268e-06
3.91108e-06
4.03134e-06
4.15825e-06
4.2966e-06
4.44987e-06
4.61878e-06
4.80099e-06
4.99146e-06
5.18317e-06
5.36794e-06
5.54031e-06
5.69245e-06
5.82502e-06
5.93308e-06
6.01992e-06
6.08773e-06
6.14046e-06
6.18022e-06
6.20866e-06
6.22827e-06
6.23495e-06
6.23025e-06
6.21273e-06
6.18445e-06
6.1413e-06
6.08946e-06
6.03349e-06
5.96875e-06
5.88536e-06
5.81786e-06
5.79573e-06
2.38906e-06
2.42248e-06
2.47963e-06
2.54421e-06
2.61639e-06
2.70301e-06
2.80717e-06
2.92882e-06
3.06418e-06
3.20633e-06
3.3457e-06
3.4724e-06
3.57804e-06
3.65807e-06
3.71179e-06
3.74264e-06
3.75654e-06
3.75989e-06
3.75845e-06
3.75733e-06
3.75408e-06
3.75014e-06
3.74712e-06
3.74757e-06
3.75206e-06
3.7626e-06
3.78033e-06
3.8053e-06
3.83526e-06
3.87076e-06
3.90791e-06
3.94797e-06
3.98906e-06
4.03587e-06
4.07275e-06
4.11353e-06
4.17109e-06
4.22715e-06
4.25535e-06
4.35486e-06
4.25462e-06
2.02409e-06
2.05905e-06
2.10709e-06
2.14636e-06
2.17539e-06
2.20121e-06
2.23006e-06
2.26779e-06
2.3214e-06
2.39945e-06
2.51039e-06
2.66159e-06
2.85602e-06
3.09173e-06
3.36108e-06
3.65254e-06
3.95269e-06
4.24876e-06
4.52977e-06
4.78618e-06
5.01785e-06
5.223e-06
5.39849e-06
5.54275e-06
5.65982e-06
5.75292e-06
5.82455e-06
5.8763e-06
5.90587e-06
5.91606e-06
5.90547e-06
5.87231e-06
5.81368e-06
5.73715e-06
5.64864e-06
5.53846e-06
5.41876e-06
5.29918e-06
5.16085e-06
5.06386e-06
4.84124e-06
1.73737e-06
1.78314e-06
1.84961e-06
1.91202e-06
1.95891e-06
1.9861e-06
1.99131e-06
1.9761e-06
1.94658e-06
1.91273e-06
1.88619e-06
1.87767e-06
1.89432e-06
1.93772e-06
2.00345e-06
2.08363e-06
2.16867e-06
2.25104e-06
2.32453e-06
2.38948e-06
2.4424e-06
2.48326e-06
2.51779e-06
2.55503e-06
2.59581e-06
2.64165e-06
2.68115e-06
2.72715e-06
2.7887e-06
2.8514e-06
2.91119e-06
2.9725e-06
3.04775e-06
3.1094e-06
3.17764e-06
3.27399e-06
3.33287e-06
3.34365e-06
3.33515e-06
3.16791e-06
3.45647e-06
1.49964e-06
1.50771e-06
1.57196e-06
1.74608e-06
2.0542e-06
2.47366e-06
2.95707e-06
3.4594e-06
3.94644e-06
4.39438e-06
4.7876e-06
5.11689e-06
5.37832e-06
5.57259e-06
5.70364e-06
5.77822e-06
5.80498e-06
5.7932e-06
5.75243e-06
5.69063e-06
5.6164e-06
5.56138e-06
5.50788e-06
5.45946e-06
5.41636e-06
5.37153e-06
5.32458e-06
5.25739e-06
5.16415e-06
5.05534e-06
4.93913e-06
4.82864e-06
4.71036e-06
4.56385e-06
4.42299e-06
4.29531e-06
4.14653e-06
3.97493e-06
3.77987e-06
3.71434e-06
3.18545e-06
36.8275
58.5453
68.1135
62.1884
37.8233
12.5204
2.04363
0.297967
0.086879
0.0259989
0.00972676
0.00454233
0.003851
0.00337019
0.00288508
0.00239529
0.00141894
0.00029327
0.000209588
0.00010723
0.000149211
1.52092e-05
1.03957e-05
4.45092e-05
0.000124853
0.000223581
0.000368565
0.00041118
0.000414086
0.000330723
0.000350091
0.000237094
0.000370169
0.000345237
0.000363336
0.000317113
0.000277422
0.000304068
0.000256822
0.000242389
0.00023
0.000216853
0.000199557
0.000179463
0.00016347
0.000170894
0.000175479
0.00015975
0.0001407
0.000130049
0.000123417
0.000119054
0.000113832
0.00010898
0.000104085
9.92079e-05
9.37763e-05
9.88625e-05
8.67199e-05
7.66686e-05
6.94109e-05
6.33415e-05
5.74166e-05
5.13706e-05
4.53466e-05
3.94821e-05
3.39043e-05
2.86891e-05
2.39314e-05
1.96457e-05
1.5936e-05
1.25762e-05
1.09496e-05
7.6938e-06
24.0093
51.3424
66.5313
73.0637
59.3647
29.7697
8.07523
1.24391
0.207327
0.0498887
0.0167441
0.00695055
0.00402596
0.00241665
0.00155888
0.000614708
6.01343e-05
5.8975e-07
0.000546687
0.00114085
0.000946547
0.000778585
0.000354939
9.95045e-08
8.87916e-06
1.4329e-05
2.56792e-07
7.41765e-05
0.000174785
0.000265074
0.000397501
0.00030247
0.000376303
0.000320368
0.000309874
0.00026179
0.000224376
0.000251393
0.000227084
0.000216646
0.000210681
0.000203947
0.000194095
0.000175203
0.000156558
0.000184504
0.000187783
0.000186965
0.000172916
0.000159799
0.000151315
0.00014673
0.00014204
0.000137005
0.000131551
0.00012572
0.0001195
0.000108771
8.72282e-05
7.55114e-05
6.72669e-05
6.08321e-05
5.49758e-05
4.91512e-05
4.34206e-05
3.78214e-05
3.25153e-05
2.75936e-05
2.31261e-05
1.91024e-05
1.56416e-05
1.25137e-05
1.09855e-05
7.90638e-06
11.3263
31.8264
51.3071
68.3301
71.3791
50.1613
21.3102
5.05237
0.748824
0.121729
0.0307862
0.0108306
0.00359193
0.00105186
0.000346053
8.75383e-05
9.64484e-05
0.00291774
0.00263619
0.00426917
0.00404852
0.00490969
0.0037185
0.00138233
0.00420338
0.0026838
3.88374e-05
0.000183165
1.42757e-05
3.1815e-05
0.000129661
0.000177541
0.000241796
0.000307564
0.000329957
0.0002781
0.000204007
0.000189108
0.000185503
0.000176867
0.000176164
0.000177835
0.000175611
0.000162909
0.000148732
0.000142364
0.000152517
0.000167976
0.00016618
0.000153886
0.000143275
0.000136395
0.000132892
0.000129109
0.000125043
0.000120091
0.000116453
9.34444e-05
8.47148e-05
7.46664e-05
6.54832e-05
5.8276e-05
5.22934e-05
4.67502e-05
4.1414e-05
3.61733e-05
3.12104e-05
2.66373e-05
2.25027e-05
1.87778e-05
1.55928e-05
1.27068e-05
1.12839e-05
8.342e-06
6.45877
13.6366
28.0039
48.3873
65.3909
63.0968
39.5721
15.3781
3.58312
0.562113
0.0894916
0.020504
0.00564976
0.00139523
3.61858e-05
0.00139108
0.00150052
0.0194212
0.0414934
0.0592459
0.064732
0.0582493
0.0461121
0.0274714
0.0122135
0.00409203
0.00343092
0.00144937
0.00423482
0.00220554
0.000529381
1.4765e-05
1.71538e-05
2.65173e-05
0.000136686
0.000214103
0.000209749
0.000198628
0.000185884
0.00015881
0.000146348
0.000147395
0.000149153
0.000142711
0.000138587
0.000110675
0.000103198
0.000118299
0.000128803
0.000125734
0.000116086
0.000105974
0.000100422
9.63738e-05
9.34242e-05
8.98037e-05
8.70607e-05
8.56905e-05
8.17795e-05
7.39638e-05
6.46801e-05
5.65724e-05
5.00526e-05
4.45848e-05
3.9609e-05
3.47604e-05
3.0157e-05
2.59187e-05
2.2089e-05
1.864e-05
1.56963e-05
1.30205e-05
1.16849e-05
8.81661e-06
9.24306
7.11436
5.40852
21.4802
44.0235
59.4566
53.4335
31.8442
12.6132
3.32081
0.61553
0.0923318
0.00849903
0.0134523
5.71152e-06
0.0127372
0.0677183
0.175406
0.274205
0.357485
0.409538
0.423566
0.405363
0.353873
0.28455
0.206966
0.133944
0.0736771
0.0300794
0.00893081
0.00202216
0.00443411
0.00229492
2.3951e-05
3.74335e-06
1.57703e-05
2.18963e-05
7.75803e-05
0.000134504
0.000161887
0.000157412
0.000146941
0.000135576
0.000122376
0.000122272
0.00010304
8.47486e-05
8.86549e-05
0.000103659
0.00011359
0.000113388
0.000104812
9.64596e-05
8.94398e-05
8.49382e-05
8.09699e-05
7.71182e-05
7.80604e-05
7.73468e-05
7.2578e-05
6.45084e-05
5.60204e-05
4.87393e-05
4.29484e-05
3.81183e-05
3.36185e-05
2.93789e-05
2.54638e-05
2.19043e-05
1.86912e-05
1.59416e-05
1.34327e-05
1.21648e-05
9.30791e-06
11.8061
13.3391
11.8686
4.82021
15.9424
38.3558
51.2038
44.5119
27.2668
12.2963
4.26204
1.23294
0.351059
0.142253
0.130115
0.176268
0.371787
0.618135
0.851422
1.04957
1.18881
1.26529
1.28196
1.23322
1.1332
0.990683
0.819546
0.633258
0.441927
0.270543
0.136496
0.0502542
0.0111453
0.000754552
0.00327007
0.0020489
1.01794e-05
8.28807e-07
2.86789e-05
3.87159e-05
6.86237e-05
0.000108483
0.000133785
0.000129374
0.000123514
0.000105844
8.28265e-05
7.15422e-05
7.64277e-05
9.00552e-05
0.000102225
0.000103615
9.83316e-05
8.98955e-05
8.30138e-05
7.7755e-05
7.29124e-05
7.16841e-05
7.16811e-05
6.96459e-05
6.39627e-05
5.62648e-05
4.85997e-05
4.22321e-05
3.71858e-05
3.2826e-05
2.88814e-05
2.52767e-05
2.19722e-05
1.89629e-05
1.6364e-05
1.39795e-05
1.27604e-05
9.85535e-06
11.9199
16.2668
20.3775
21.8872
12.2759
11.4508
30.7896
41.3312
36.7992
24.7547
13.6342
6.63661
3.16856
1.71745
1.20942
1.0795
1.28324
1.58573
1.87373
2.11375
2.28904
2.40236
2.45283
2.43124
2.34754
2.20509
2.0157
1.78683
1.51579
1.21884
0.909721
0.608915
0.354106
0.167218
0.0573526
0.0114716
0.000364729
0.00278545
0.00171425
0.000228076
1.69484e-06
2.3116e-05
4.76729e-05
7.0752e-05
0.000103205
0.0001184
0.000104648
8.1734e-05
6.79676e-05
6.74591e-05
7.8598e-05
8.94434e-05
9.4225e-05
9.05748e-05
8.36429e-05
7.67356e-05
7.06812e-05
6.70148e-05
6.58591e-05
6.50884e-05
6.1986e-05
5.62888e-05
4.92632e-05
4.26217e-05
3.7151e-05
3.261e-05
2.87413e-05
2.53538e-05
2.22767e-05
1.94537e-05
1.69777e-05
1.46806e-05
1.349e-05
1.04856e-05
8.77915
13.7637
20.3148
27.3908
27.3394
17.3365
8.26182
21.5454
30.7392
29.5268
22.6647
15.2658
9.75189
6.36522
4.53102
3.59783
3.31834
3.30779
3.36017
3.42249
3.46926
3.49951
3.50391
3.46775
3.39352
3.27578
3.12432
2.94278
2.72207
2.46535
2.1637
1.81561
1.43423
1.0367
0.67006
0.369401
0.164105
0.0536761
0.0101572
0.000308235
0.00222428
0.00127895
9.94866e-05
1.81283e-05
3.73517e-08
2.51421e-05
6.24625e-05
8.12069e-05
7.95895e-05
6.96529e-05
6.77708e-05
7.21833e-05
7.97631e-05
8.35292e-05
8.22662e-05
7.71104e-05
7.05673e-05
6.48007e-05
6.13376e-05
5.99132e-05
5.83155e-05
5.49707e-05
4.96699e-05
4.36538e-05
3.80843e-05
3.3247e-05
2.91845e-05
2.57888e-05
2.28196e-05
2.01393e-05
1.77682e-05
1.55354e-05
1.43568e-05
1.12121e-05
3.46356
6.871
13.2878
21.9134
28.8266
28.7997
20.8167
9.16213
11.7899
19.8598
21.7649
19.2685
15.3292
11.7019
8.99033
7.14938
6.0446
5.37745
4.92457
4.58459
4.31997
4.12028
3.96467
3.83153
3.71397
3.59548
3.4789
3.36494
3.24589
3.11942
2.96873
2.7884
2.55272
2.24756
1.87941
1.4614
1.03403
0.647018
0.342819
0.145094
0.0443618
0.00773317
0.00010947
5.03075e-05
0.000208129
1.22328e-05
1.34433e-05
5.00998e-07
2.39045e-05
4.49504e-05
5.47477e-05
6.15213e-05
7.10825e-05
7.6505e-05
7.7355e-05
7.50059e-05
7.0648e-05
6.50709e-05
5.98378e-05
5.64277e-05
5.43781e-05
5.22619e-05
4.88121e-05
4.42351e-05
3.93592e-05
3.46392e-05
3.04079e-05
2.68107e-05