/*--------------------------------*- C++ -*----------------------------------*\
| =========                 |                                                 |
| \\      /  F ield         | OpenFOAM: The Open Source CFD Toolbox           |
|  \\    /   O peration     | Version:  2312                                  |
|   \\  /    A nd           | Website:  www.openfoam.com                      |
|    \\/     M anipulation  |                                                 |
\*---------------------------------------------------------------------------*/
FoamFile
{
    version     2.0;
    format      ascii;
    arch        "LSB;label=32;scalar=64";
    class       volScalarField;
    location    "50";
    object      turbulenceProperties:I;
}
// * * * * * * * * * * * * * * * * * * * * * * * * * * * * * * * * * * * * * //

dimensions      [0 0 0 0 0 0 0];

internalField   nonuniform List<scalar> 
11040
(
0.0269206
0.0330796
0.0458647
0.0682928
0.109038
0.189593
0.335438
0.42203
0.410796
0.372565
0.34324
0.323029
0.309097
0.299594
0.29304
0.288424
0.285105
0.283069
0.282372
0.28258
0.283476
0.284796
0.286066
0.287446
0.289848
0.293298
0.297535
0.302315
0.307001
0.312274
0.319404
0.331278
0.347814
0.353813
0.334769
0.31778
0.345252
0.557613
0.374804
1
0.445942
0.0122398
0.0104807
0.0106454
0.0133393
0.0205056
0.0319824
0.0504778
0.0708418
0.0884897
0.10353
0.116312
0.126744
0.134462
0.138886
0.139927
0.138137
0.134552
0.130444
0.126855
0.124203
0.122783
0.122665
0.123384
0.124822
0.127713
0.13206
0.13755
0.143685
0.149938
0.157048
0.166709
0.182532
0.206518
0.222948
0.203779
0.164865
0.191877
0.565091
1
0.61459
0.741435
0.0100261
0.00660424
0.00567002
0.00514265
0.00435853
0.0029089
0.00406278
0.0083188
0.0126858
0.016959
0.0216311
0.027381
0.0345709
0.0432235
0.052954
0.0631898
0.0733404
0.0828058
0.091052
0.0977846
0.103
0.106937
0.109995
0.112621
0.115639
0.119241
0.123701
0.12894
0.134885
0.141811
0.150943
0.165145
0.185508
0.200605
0.194937
0.188849
0.266411
0.543769
0.780622
0.451719
0.433332
0.00876158
0.00699031
0.00584079
0.00498986
0.00430892
0.00372483
0.00302921
0.00229156
0.00171337
0.00133748
0.00109557
0.000910396
0.000802891
0.00177237
0.00412008
0.0076538
0.0124406
0.0186899
0.0264597
0.0356059
0.045938
0.0566123
0.0666906
0.0760389
0.0848583
0.0931943
0.101246
0.109145
0.117037
0.125378
0.135242
0.148486
0.165229
0.178811
0.184445
0.201794
0.275185
0.411827
0.494691
0.372768
0.368609
0.00742285
0.00625495
0.00524649
0.00443588
0.00383123
0.00343068
0.00316383
0.00292136
0.00265974
0.00240041
0.00216151
0.00193157
0.0016849
0.00140905
0.000736254
0.000341653
0.000397732
0.000654508
0.00121668
0.00207129
0.00521829
0.0102814
0.0166579
0.0242193
0.032954
0.0427923
0.0535936
0.0652048
0.0774328
0.0902236
0.1039
0.119131
0.135617
0.150656
0.16436
0.188116
0.238908
0.309517
0.354592
0.318018
0.336678
0.00615692
0.00549825
0.00489087
0.00432759
0.00383714
0.00343602
0.00312182
0.00287059
0.00264852
0.00243341
0.0022255
0.00204213
0.00190107
0.00180013
0.00170729
0.0016125
0.00147583
0.00125186
0.000749347
0.000203683
0.000518134
0.000871751
0.0012764
0.00187102
0.00336173
0.00676758
0.0119357
0.0189702
0.028056
0.0394504
0.0534512
0.0701257
0.0887692
0.108086
0.128406
0.153791
0.189291
0.230548
0.26043
0.259868
0.288812
0.00510447
0.00473135
0.00438387
0.00401011
0.00363625
0.0032963
0.00300552
0.00276241
0.00255316
0.00236305
0.00218615
0.00202581
0.00188985
0.00178384
0.00170769
0.00164851
0.00159953
0.0015482
0.00148489
0.0013873
0.00124912
0.0010923
0.000718694
0.000782498
0.00122558
9.77012e-05
0.000155118
0.000646646
0.00277832
0.00666254
0.01303
0.0228712
0.0363707
0.0535827
0.0748902
0.100668
0.130423
0.160955
0.184519
0.19394
0.220467
0.00423091
0.00401524
0.00383207
0.00361929
0.00337481
0.00312559
0.00289387
0.00268754
0.00250243
0.00232983
0.00216451
0.00200787
0.00186681
0.00174809
0.00165316
0.00158028
0.00152605
0.00148326
0.00144463
0.00140889
0.00136949
0.00133609
0.00130269
0.00122607
0.00109617
0.000962329
0.000466191
0.000350665
0.000672011
0.00154645
0.00130782
0.00245428
0.00602284
0.0134382
0.0256867
0.0437129
0.0662919
0.0904808
0.110851
0.122015
0.142032
0.00351637
0.00338862
0.00329517
0.00318875
0.00305042
0.002889
0.00272034
0.00255612
0.00239997
0.00225126
0.00210892
0.001974
0.00185083
0.00174415
0.00165536
0.00158359
0.00152742
0.00148374
0.00144686
0.00141281
0.00138351
0.00136372
0.00136213
0.0013751
0.00136812
0.00134713
0.00129462
0.00117735
0.00101763
0.000622799
0.000115331
0.00054458
0.00101885
0.00250763
0.00105592
0.0077709
0.0190313
0.0340467
0.0484865
0.0563505
0.068466
0.00292851
0.00285102
0.00280389
0.00275775
0.00269202
0.00260297
0.00249683
0.00238225
0.00226548
0.00214914
0.00203465
0.00192325
0.00181752
0.00172111
0.00163609
0.00156302
0.00150245
0.00145443
0.00141668
0.00138412
0.00135339
0.0013263
0.00130717
0.00130007
0.00130494
0.00131388
0.00133039
0.00134102
0.0013435
0.00127536
0.00110965
0.000949432
0.000421213
0.000177265
0.000157086
0.00095734
0.000275497
0.00587483
0.0121137
0.0167926
0.0212384
0.00244382
0.00239639
0.00237289
0.00235728
0.00233393
0.00229495
0.00223947
0.00217066
0.00209265
0.00200897
0.00192235
0.00183487
0.00174891
0.00166766
0.0015934
0.00152747
0.00147089
0.00142446
0.00138776
0.0013576
0.00132964
0.00130265
0.00127867
0.00126121
0.00125442
0.00125846
0.00126936
0.00128345
0.00130001
0.00131515
0.00131458
0.0012913
0.00121452
0.00108777
0.000545964
0.00015696
8.29173e-05
0.00101804
0.00255562
0.00133724
0.00485506
0.00204268
0.0020135
0.00200204
0.00200055
0.00199856
0.00198885
0.00196782
0.00193484
0.0018911
0.00183864
0.00178027
0.00171797
0.00165389
0.00159057
0.00153016
0.00147426
0.00142394
0.00138024
0.00134367
0.00131323
0.00128667
0.00126232
0.00123997
0.00122132
0.00120936
0.00120705
0.00121236
0.00122026
0.00122641
0.00122999
0.00122511
0.00120712
0.00119939
0.00121892
0.00118672
0.000966166
0.000566336
7.66522e-05
0.000114792
0.000210758
3.96493e-05
0.00170966
0.00169174
0.0016866
0.00169107
0.00169854
0.00170367
0.00170285
0.00169399
0.00167629
0.00165008
0.00161668
0.00157762
0.00153448
0.00148932
0.00144416
0.00140047
0.00135939
0.00132181
0.00128837
0.00125924
0.00123383
0.00121157
0.00119139
0.00117326
0.00115881
0.00114959
0.0011452
0.00114423
0.00114333
0.00114015
0.00113127
0.00111129
0.00108332
0.00107306
0.00110266
0.00112791
0.00109262
0.00101817
0.000988267
0.000770709
0.00033339
0.0014322
0.00142139
0.00141962
0.00142615
0.00143693
0.00144827
0.00145741
0.00146224
0.00146128
0.00145377
0.00143988
0.00142022
0.00139568
0.00136755
0.00133729
0.00130613
0.00127499
0.00124462
0.00121583
0.00118914
0.00116493
0.00114364
0.00112454
0.00110675
0.00109063
0.00107622
0.00106483
0.00105681
0.00105094
0.00104562
0.0010393
0.00102887
0.0010104
0.000990609
0.000990519
0.00101664
0.001044
0.00107575
0.00118188
0.00134423
0.00121026
0.00120043
0.00119413
0.00119418
0.00120101
0.00121216
0.00122517
0.00123809
0.0012493
0.00125737
0.00126122
0.00126038
0.00125476
0.00124454
0.00123029
0.00121275
0.00119283
0.00117132
0.00114901
0.00112662
0.00110481
0.00108394
0.00106495
0.00104791
0.00103181
0.0010166
0.00100237
0.000989953
0.000979578
0.000971248
0.000964511
0.000958865
0.0009531
0.000945066
0.000933881
0.000925965
0.000932868
0.000952581
0.000964942
0.000984895
0.00108786
0.00118557
0.00100658
0.00100311
0.00100413
0.00101043
0.00102062
0.00103309
0.00104649
0.00105968
0.00107153
0.00108104
0.00108753
0.00109058
0.00108997
0.00108578
0.00107833
0.00106807
0.0010557
0.00104181
0.00102697
0.00101177
0.000996357
0.000981494
0.000967649
0.000954324
0.000941426
0.000929029
0.000917424
0.000906627
0.000897446
0.000889864
0.000883683
0.000878408
0.000873134
0.000866448
0.000858628
0.00085409
0.000856314
0.000860869
0.000858215
0.000864532
0.00089754
0.000845337
0.000843521
0.00084499
0.000850438
0.000859178
0.000870179
0.000882522
0.000895383
0.000907955
0.000919462
0.000929283
0.000936973
0.000942181
0.000944745
0.00094468
0.000942132
0.000937308
0.000930557
0.000922207
0.000912724
0.000902151
0.00089104
0.000880018
0.000868832
0.000857593
0.00084643
0.000835328
0.000825095
0.000815855
0.000807646
0.000800231
0.000793278
0.000786092
0.000778047
0.000768595
0.000758228
0.000748688
0.000742868
0.000737742
0.000728723
0.0007228
0.000715241
0.000714361
0.000715992
0.000720629
0.000727997
0.000737434
0.000748267
0.000759885
0.000771707
0.000783158
0.00079375
0.000803098
0.000810853
0.000816756
0.000820634
0.000822424
0.000822145
0.000819868
0.000815689
0.000809879
0.000802487
0.000793999
0.000784873
0.000775236
0.000765233
0.000755096
0.000744914
0.000734957
0.000725233
0.000715653
0.000706097
0.000696424
0.000686349
0.000675553
0.000663799
0.00065107
0.000637943
0.000625626
0.000614534
0.000605711
0.000596492
0.000612897
0.000612586
0.000614244
0.000618207
0.000624442
0.000632504
0.000641875
0.000652066
0.000662629
0.00067311
0.000683119
0.000692323
0.000700416
0.000707133
0.000712262
0.000715674
0.000717305
0.000717172
0.000715313
0.000711883
0.000706656
0.000700021
0.000692672
0.000684604
0.000676052
0.000667236
0.000657908
0.000648201
0.000638213
0.000627902
0.000617321
0.000606429
0.000595231
0.000583515
0.000571178
0.000558121
0.00054472
0.000531421
0.000517792
0.000506844
0.000495583
0.00053197
0.000531975
0.000533552
0.00053691
0.00054217
0.000549038
0.000557094
0.000565937
0.000575209
0.000584555
0.000593666
0.000602279
0.000610147
0.000617038
0.000622771
0.000627184
0.000630177
0.000631664
0.000631593
0.000630008
0.000626573
0.000621645
0.000615767
0.000609109
0.000601918
0.000594105
0.000585773
0.000576824
0.000567455
0.000557526
0.000547266
0.000536697
0.000525887
0.000514738
0.000503189
0.000491088
0.000478628
0.000466166
0.000452872
0.000441167
0.000428558
0.000466314
0.000466464
0.000467901
0.000470736
0.000475179
0.000481042
0.000487965
0.000495619
0.000503704
0.000511943
0.000520079
0.000527907
0.000535224
0.000541842
0.00054759
0.000552324
0.000555928
0.000558312
0.000559417
0.000559294
0.000557656
0.000554426
0.000550227
0.000545058
0.000539086
0.000532397
0.000525071
0.000516975
0.000508426
0.000499747
0.000490627
0.000481135
0.000471374
0.000461269
0.000450705
0.000439593
0.000427925
0.000415932
0.000402993
0.000390875
0.0003772
0.000412023
0.000412241
0.000413535
0.000415933
0.000419705
0.000424718
0.000430667
0.000437262
0.000444252
0.000451403
0.0004585
0.000465372
0.000471845
0.000477767
0.000482985
0.000487385
0.000490837
0.000493273
0.000494584
0.000494805
0.000493697
0.000491319
0.000488012
0.000483799
0.000478769
0.000472953
0.00046646
0.000459505
0.000452083
0.000444252
0.000436045
0.000427499
0.000418557
0.000409138
0.000399175
0.000388661
0.000377635
0.000366191
0.000353912
0.000342531
0.000329305
0.000366407
0.000366658
0.000367827
0.000369869
0.000373092
0.0003774
0.000382531
0.000388226
0.000394274
0.000400471
0.000406635
0.000412619
0.000418279
0.000423485
0.000428105
0.00043204
0.000435183
0.000437449
0.000438753
0.000439082
0.000438214
0.000436099
0.00043305
0.000429101
0.00042433
0.000418927
0.000412979
0.000406632
0.000399811
0.000392566
0.000385007
0.000377031
0.000368714
0.000360081
0.000351124
0.00034188
0.000332505
0.000323051
0.000313134
0.000304648
0.000294125
0.000327592
0.000327873
0.000328926
0.000330685
0.00033346
0.000337192
0.000341641
0.000346584
0.000351832
0.000357214
0.000362572
0.000367778
0.00037271
0.000377258
0.000381313
0.000384785
0.000387589
0.000389655
0.000390897
0.000391322
0.000390655
0.000388901
0.000386296
0.000382902
0.000378863
0.000374299
0.000369227
0.000363714
0.000357773
0.000351268
0.000344609
0.000337905
0.000330994
0.000323966
0.000316837
0.000309595
0.000302379
0.000295231
0.000287793
0.000281511
0.000274232
0.000294216
0.000294509
0.000295471
0.000297003
0.00029942
0.000302675
0.000306559
0.000310867
0.000315441
0.000320126
0.000324791
0.00032932
0.000333616
0.000337574
0.000341116
0.000344152
0.000346624
0.000348453
0.000349581
0.000349979
0.000349449
0.000347994
0.000345831
0.000343064
0.000339788
0.000336008
0.000331773
0.000327073
0.000322083
0.000316667
0.000311132
0.000305761
0.000300321
0.0002948
0.000289202
0.000283538
0.000277916
0.00027238
0.000266762
0.000261551
0.000257662
0.000265258
0.000265556
0.000266445
0.000267803
0.000269929
0.000272794
0.000276208
0.000279989
0.000283994
0.000288089
0.000292161
0.000296107
0.000299846
0.000303285
0.000306361
0.000308999
0.000311148
0.000312746
0.000313739
0.000314108
0.000313693
0.000312482
0.00031068
0.000308364
0.000305564
0.000302312
0.000298679
0.000294693
0.000290515
0.000286221
0.000281619
0.000277027
0.000272698
0.000268177
0.000263601
0.000259076
0.000254679
0.000250426
0.000246351
0.00024218
0.000240615
0.000239931
0.000240247
0.000241076
0.000242292
0.000244184
0.000246729
0.000249755
0.000253097
0.000256628
0.000260229
0.000263799
0.000267251
0.000270511
0.000273504
0.000276171
0.000278455
0.000280309
0.000281684
0.000282542
0.000282863
0.00028253
0.000281515
0.000280017
0.000278069
0.000275725
0.000273056
0.000270093
0.00026691
0.000263569
0.00026011
0.000256282
0.000252464
0.000248923
0.000245263
0.000241654
0.000238222
0.000235002
0.00023196
0.00022926
0.000226247
0.000226335
0.000217649
0.000217962
0.000218742
0.000219851
0.000221552
0.000223838
0.000226545
0.000229525
0.000232659
0.000235848
0.000238995
0.000242031
0.000244884
0.000247498
0.000249815
0.000251795
0.000253396
0.000254584
0.000255324
0.000255606
0.000255319
0.000254458
0.000253207
0.000251597
0.000249722
0.000247612
0.000245308
0.000242847
0.000240192
0.000237424
0.000234323
0.000231323
0.000228513
0.00022576
0.000223132
0.00022069
0.000218448
0.000216357
0.000214682
0.000212511
0.000213895
0.000197905
0.000198227
0.000198962
0.000199987
0.000201539
0.000203613
0.000206058
0.000208741
0.000211547
0.000214392
0.000217188
0.000219876
0.000222392
0.000224689
0.000226714
0.000228439
0.000229828
0.000230861
0.000231512
0.000231773
0.000231564
0.000230894
0.000229906
0.000228634
0.000227108
0.00022539
0.000223495
0.000221477
0.000219347
0.000217234
0.000215
0.000212732
0.000210634
0.000208842
0.000207033
0.000205304
0.000203719
0.000202238
0.000201208
0.000199488
0.000201703
0.000180332
0.000180647
0.000181347
0.000182307
0.000183741
0.000185644
0.000187876
0.000190313
0.000192851
0.000195412
0.000197917
0.000200316
0.000202554
0.000204589
0.000206378
0.000207897
0.000209116
0.000210018
0.000210585
0.000210814
0.000210641
0.000210114
0.000209331
0.000208315
0.000207105
0.00020573
0.000204258
0.000202742
0.000201202
0.00019969
0.00019813
0.000196572
0.000195214
0.000193929
0.000192605
0.000191344
0.000190205
0.000189125
0.000188513
0.000187076
0.000189802
0.000164609
0.000164916
0.000165583
0.000166493
0.000167837
0.000169598
0.000171657
0.000173891
0.000176212
0.000178535
0.000180803
0.000182958
0.000184965
0.000186781
0.000188379
0.000189729
0.000190812
0.000191609
0.000192108
0.000192302
0.00019214
0.000191678
0.000191023
0.000190223
0.000189307
0.000188321
0.000187279
0.000186223
0.000185184
0.000184141
0.000183084
0.00018205
0.000181241
0.000180308
0.000179425
0.000178597
0.000177844
0.000177083
0.000176773
0.000175539
0.00017856
0.000150482
0.000150776
0.000151418
0.00015229
0.000153563
0.000155212
0.000157128
0.000159195
0.000161335
0.000163466
0.000165536
0.000167491
0.000169306
0.000170941
0.00017238
0.000173591
0.000174568
0.000175287
0.000175747
0.000175942
0.000175828
0.000175478
0.000174976
0.000174361
0.000173671
0.000172928
0.000172164
0.000171375
0.000170625
0.000169899
0.000169311
0.000168612
0.000168267
0.000167959
0.000167453
0.000166977
0.000166524
0.000166006
0.000165906
0.000164801
0.000167945
0.000137734
0.000138019
0.000138638
0.000139492
0.000140712
0.00014227
0.000144065
0.000145993
0.00014798
0.000149954
0.000151863
0.00015366
0.00015532
0.000156812
0.000158122
0.000159231
0.000160132
0.000160807
0.000161256
0.000161462
0.000161428
0.000161179
0.000160819
0.000160354
0.000159823
0.000159265
0.000158707
0.000158176
0.000157679
0.000157239
0.000156895
0.000156515
0.000156487
0.000156519
0.000156179
0.000155911
0.000155687
0.000155398
0.000155498
0.00015452
0.000157756
0.000126184
0.000126461
0.000127071
0.000127922
0.000129104
0.000130597
0.000132289
0.0001341
0.000135953
0.000137796
0.00013957
0.000141243
0.000142778
0.000144162
0.000145373
0.00014641
0.000147261
0.000147921
0.000148388
0.000148632
0.000148661
0.000148511
0.000148256
0.000147925
0.000147546
0.000147158
0.00014679
0.000146446
0.000146163
0.000145922
0.000145749
0.000145525
0.000145677
0.000145845
0.000145586
0.000145464
0.000145416
0.000145322
0.000145603
0.000144789
0.000148186
0.000115676
0.000115951
0.000116566
0.000117426
0.000118598
0.000120039
0.000121652
0.000123359
0.000125098
0.000126823
0.000128483
0.000130049
0.000131489
0.000132787
0.000133925
0.000134906
0.000135721
0.000136373
0.000136861
0.000137171
0.000137302
0.000137276
0.000137157
0.000136945
0.000136686
0.000136409
0.000136147
0.000135933
0.000135739
0.000135597
0.000135507
0.000135431
0.0001356
0.000135843
0.000135744
0.000135765
0.00013584
0.000135869
0.000136227
0.000135494
0.000139016
0.000106084
0.000106362
0.000106992
0.000107879
0.00010905
0.00011046
0.000112013
0.000113637
0.00011528
0.000116901
0.000118461
0.000119932
0.000121289
0.000122518
0.000123602
0.000124541
0.000125335
0.000125987
0.000126507
0.000126879
0.000127109
0.000127206
0.000127194
0.000127092
0.000126916
0.000126705
0.000126488
0.000126278
0.000126063
0.000125913
0.000125842
0.000125928
0.000125973
0.000126451
0.000126836
0.000126811
0.00012695
0.000127073
0.000127468
0.000126773
0.000130284
9.73036e-05
9.75893e-05
9.82431e-05
9.91607e-05
0.00010034
0.000101729
0.000103235
0.000104798
0.000106368
0.000107907
0.000109382
0.00011077
0.000112053
0.000113218
0.000114257
0.000115165
0.000115945
0.000116604
0.000117145
0.000117581
0.000117882
0.000118076
0.00011818
0.000118178
0.000118107
0.00011798
0.000117795
0.00011755
0.000117335
0.000117192
0.000117153
0.000117239
0.000117349
0.000117828
0.000118236
0.000118287
0.000118517
0.000118734
0.000119176
0.000118617
0.000122025
8.92477e-05
8.95468e-05
9.02302e-05
9.11757e-05
9.23626e-05
9.37253e-05
9.5198e-05
9.67122e-05
9.82311e-05
9.97115e-05
0.00010113
0.000102455
0.00010368
0.000104787
0.000105781
0.000106654
0.000107415
0.000108063
0.00010861
0.000109056
0.000109412
0.000109699
0.000109917
0.000110073
0.000110141
0.000110119
0.000109999
0.000109852
0.000109681
0.000109555
0.000109515
0.000109535
0.000109559
0.000109873
0.000110177
0.000110241
0.000110494
0.000110763
0.000111235
0.00011083
0.000114107
8.18462e-05
8.21632e-05
8.28738e-05
8.3846e-05
8.5025e-05
8.63646e-05
8.77955e-05
8.92638e-05
9.07361e-05
9.21776e-05
9.35613e-05
9.48568e-05
9.60495e-05
9.71248e-05
9.80825e-05
9.89236e-05
9.9658e-05
0.000100292
0.000100836
0.000101302
0.000101675
0.000101994
0.00010226
0.000102467
0.000102614
0.000102684
0.000102712
0.000102705
0.000102677
0.000102609
0.000102493
0.000102408
0.000102361
0.00010246
0.000102569
0.000102615
0.000102807
0.000103024
0.00010342
0.000103146
0.000105972
7.50456e-05
7.53829e-05
7.61163e-05
7.70951e-05
7.82613e-05
7.95621e-05
8.09456e-05
8.2363e-05
8.37837e-05
8.51836e-05
8.65378e-05
8.7821e-05
8.90107e-05
9.00888e-05
9.10446e-05
9.18754e-05
9.259e-05
9.32054e-05
9.37368e-05
9.41989e-05
9.46207e-05
9.49905e-05
9.53448e-05
9.56464e-05
9.5884e-05
9.611e-05
9.63219e-05
9.64964e-05
9.66188e-05
9.66944e-05
9.67113e-05
9.66944e-05
9.66775e-05
9.67397e-05
9.67483e-05
9.67089e-05
9.67785e-05
9.68702e-05
9.70887e-05
9.68742e-05
9.91114e-05
6.88061e-05
6.91697e-05
6.99158e-05
7.08818e-05
7.19972e-05
7.32353e-05
7.45557e-05
7.5914e-05
7.72857e-05
7.86463e-05
7.9969e-05
8.1235e-05
8.2424e-05
8.35212e-05
8.45075e-05
8.53738e-05
8.61108e-05
8.6723e-05
8.72193e-05
8.76166e-05
8.79311e-05
8.82002e-05
8.84186e-05
8.86022e-05
8.87891e-05
8.89717e-05
8.91392e-05
8.93052e-05
8.94348e-05
8.94941e-05
8.95547e-05
8.96455e-05
8.97515e-05
8.98237e-05
8.99025e-05
8.99855e-05
9.0058e-05
9.01284e-05
9.02498e-05
9.0172e-05
9.15293e-05
6.30786e-05
6.34833e-05
6.42501e-05
6.51865e-05
6.62218e-05
6.73512e-05
6.85477e-05
6.98028e-05
7.10969e-05
7.2414e-05
7.37223e-05
7.49954e-05
7.62009e-05
7.73234e-05
7.8348e-05
7.92737e-05
8.01008e-05
8.08351e-05
8.14861e-05
8.20523e-05
8.25627e-05
8.29827e-05
8.33578e-05
8.37111e-05
8.40464e-05
8.43648e-05
8.46673e-05
8.49078e-05
8.50975e-05
8.52702e-05
8.54013e-05
8.547e-05
8.55353e-05
8.56227e-05
8.56176e-05
8.55713e-05
8.55451e-05
8.54911e-05
8.54138e-05
8.52007e-05
8.59987e-05
5.78042e-05
5.82445e-05
5.90348e-05
5.99604e-05
6.09402e-05
6.19621e-05
6.3014e-05
6.40937e-05
6.52051e-05
6.63592e-05
6.75571e-05
6.87895e-05
7.00281e-05
7.12325e-05
7.23542e-05
7.33485e-05
7.41832e-05
7.48393e-05
7.53165e-05
7.56416e-05
7.58056e-05
7.5866e-05
7.58737e-05
7.58611e-05
7.58507e-05
7.58607e-05
7.58789e-05
7.59298e-05
7.60249e-05
7.61402e-05
7.62877e-05
7.64483e-05
7.65917e-05
7.67763e-05
7.68766e-05
7.69538e-05
7.71212e-05
7.72414e-05
7.72243e-05
7.73184e-05
7.74869e-05
5.29324e-05
5.33417e-05
5.40807e-05
5.49527e-05
5.59019e-05
5.69127e-05
5.79532e-05
5.89872e-05
5.99889e-05
6.09508e-05
6.18841e-05
6.28188e-05
6.37918e-05
6.48372e-05
6.59774e-05
6.72125e-05
6.85205e-05
6.98621e-05
7.11871e-05
7.24413e-05
7.35922e-05
7.45934e-05
7.54551e-05
7.61504e-05
7.67051e-05
7.71357e-05
7.74695e-05
7.77208e-05
7.79008e-05
7.80256e-05
7.80695e-05
7.80426e-05
7.79355e-05
7.7761e-05
7.74924e-05
7.71678e-05
7.68156e-05
7.64058e-05
7.58735e-05
7.54404e-05
7.53002e-05
4.85114e-05
4.8835e-05
4.93935e-05
5.00188e-05
5.07101e-05
5.15304e-05
5.25021e-05
5.36168e-05
5.48317e-05
5.60799e-05
5.72776e-05
5.83448e-05
5.92197e-05
5.98736e-05
6.03081e-05
6.05561e-05
6.06676e-05
6.06949e-05
6.06844e-05
6.06772e-05
6.06535e-05
6.06244e-05
6.06029e-05
6.06095e-05
6.06487e-05
6.07366e-05
6.08822e-05
6.10855e-05
6.13278e-05
6.16133e-05
6.19104e-05
6.22289e-05
6.25536e-05
6.29212e-05
6.32095e-05
6.35264e-05
6.39705e-05
6.44001e-05
6.46155e-05
6.53677e-05
6.46117e-05
4.46582e-05
4.50324e-05
4.55445e-05
4.59565e-05
4.62564e-05
4.65211e-05
4.6817e-05
4.72044e-05
4.77532e-05
4.85443e-05
4.96496e-05
5.11192e-05
5.29501e-05
5.50884e-05
5.74347e-05
5.98697e-05
6.22775e-05
6.45643e-05
6.66618e-05
6.85193e-05
7.01552e-05
7.15725e-05
7.27631e-05
7.37276e-05
7.45016e-05
7.51119e-05
7.55788e-05
7.5915e-05
7.61075e-05
7.61754e-05
7.61096e-05
7.58982e-05
7.55211e-05
7.50253e-05
7.44473e-05
7.37206e-05
7.29228e-05
7.21169e-05
7.11725e-05
7.05037e-05
6.89393e-05
4.13799e-05
4.19153e-05
4.26819e-05
4.33876e-05
4.39077e-05
4.4203e-05
4.42533e-05
4.40776e-05
4.37421e-05
4.33566e-05
4.30529e-05
4.2955e-05
4.31461e-05
4.36398e-05
4.43771e-05
4.52609e-05
4.61805e-05
4.70552e-05
4.78233e-05
4.8493e-05
4.90333e-05
4.94477e-05
4.97958e-05
5.01676e-05
5.0571e-05
5.10196e-05
5.14031e-05
5.18454e-05
5.24298e-05
5.3018e-05
5.35727e-05
5.41351e-05
5.48165e-05
5.53683e-05
5.59724e-05
5.68139e-05
5.73215e-05
5.7413e-05
5.7339e-05
5.5882e-05
5.83714e-05
3.84497e-05
3.85507e-05
3.93603e-05
4.14784e-05
4.49839e-05
4.93564e-05
5.39557e-05
5.83498e-05
6.23124e-05
6.57438e-05
6.86124e-05
7.09233e-05
7.27039e-05
7.39975e-05
7.48559e-05
7.53382e-05
7.55083e-05
7.54289e-05
7.51616e-05
7.47567e-05
7.42686e-05
7.39061e-05
7.35532e-05
7.32336e-05
7.29491e-05
7.26522e-05
7.23397e-05
7.18876e-05
7.12529e-05
7.05034e-05
6.96929e-05
6.89132e-05
6.80678e-05
6.70042e-05
6.59647e-05
6.50081e-05
6.38745e-05
6.25408e-05
6.09885e-05
6.04592e-05
5.59909e-05
0.413203
0.440334
0.428034
0.337722
0.218779
0.111914
0.0432803
0.0165418
0.0090714
0.00505204
0.00313896
0.00217411
0.00202355
0.00190893
0.00177804
0.00162672
0.00125768
0.000572828
0.00048415
0.000345955
0.000407794
0.000130028
0.000107299
0.000221541
0.000369862
0.000493174
0.000630465
0.000662635
0.000661525
0.000588384
0.000603233
0.000494602
0.000616093
0.000593641
0.000607457
0.000566214
0.000527988
0.000551346
0.000505184
0.000489121
0.00047494
0.000459944
0.0004402
0.000416473
0.000396806
0.000405137
0.000409888
0.000390689
0.000366266
0.00035175
0.000342302
0.000335825
0.00032804
0.000320614
0.000312991
0.000305237
0.000296448
0.000304083
0.00028448
0.000267249
0.000254076
0.000242544
0.000230788
0.000218205
0.000204959
0.000191227
0.000177214
0.000163051
0.000148973
0.000135049
0.000121706
0.000108215
0.000101032
8.48234e-05
0.511949
0.537136
0.518245
0.435458
0.311887
0.186458
0.0891593
0.034276
0.0141225
0.00704856
0.00414941
0.00271082
0.00208552
0.00162933
0.00131673
0.000829761
0.000260424
2.58262e-05
0.000785463
0.00113234
0.00102971
0.000931933
0.000627655
1.04806e-05
9.86435e-05
0.000124809
1.66307e-05
0.00028104
0.000429241
0.000526087
0.000642016
0.000557978
0.000620526
0.000571214
0.000560333
0.000513813
0.00047421
0.000500642
0.000474348
0.000461754
0.000453909
0.000445441
0.000433556
0.000410986
0.000387876
0.000420321
0.000423387
0.000422068
0.000405512
0.000389437
0.000378561
0.000372371
0.000365995
0.000359047
0.000351445
0.000343197
0.000334255
0.000318488
0.000284992
0.000264959
0.000249887
0.000237479
0.00022564
0.000213272
0.000200415
0.00018704
0.000173445
0.000159827
0.000146382
0.000133119
0.00012054
0.00010792
0.000101179
8.59753e-05
0.470427
0.537838
0.569371
0.526023
0.413726
0.275933
0.155764
0.0712987
0.0271831
0.0110901
0.00566041
0.00340244
0.00197966
0.00107972
0.000622732
0.000314125
0.000330737
0.00182088
0.00172799
0.0021927
0.00212979
0.00233849
0.00202883
0.00123308
0.00214207
0.00170479
0.000204156
0.000441102
0.000122554
0.000182091
0.000366313
0.000427049
0.000496892
0.000559056
0.000577562
0.000528982
0.000451679
0.000433711
0.000428196
0.000416678
0.000414511
0.000415386
0.000411836
0.000395786
0.000377604
0.000368705
0.00038095
0.000399349
0.000396826
0.000381514
0.00036775
0.000358418
0.000353411
0.000347947
0.00034205
0.000334844
0.000329391
0.000294825
0.00028053
0.000263195
0.000246314
0.000232227
0.00021988
0.000207834
0.000195587
0.000182799
0.000169829
0.000156952
0.00014433
0.000131933
0.000120313
0.000108721
0.000102523
8.82981e-05
0.380198
0.40612
0.504652
0.557465
0.502763
0.374886
0.240528
0.132885
0.0611403
0.0241008
0.00971936
0.00471217
0.00249821
0.00125027
0.000202256
0.00125658
0.00130736
0.0047042
0.00686307
0.00817566
0.00851975
0.00805309
0.00713794
0.00548784
0.00364295
0.00209917
0.00191297
0.00123726
0.00210547
0.00151307
0.000739049
0.00012303
0.000132246
0.000164022
0.000371389
0.000463655
0.000457495
0.000443986
0.000428146
0.000394386
0.000377368
0.000377704
0.000379067
0.000369968
0.000364047
0.000324764
0.000313027
0.000334705
0.000348878
0.000344397
0.000330613
0.000315557
0.000306854
0.000300258
0.000295297
0.000289202
0.000284449
0.000281976
0.000275293
0.000261661
0.000244552
0.000228596
0.000214933
0.000202802
0.000191137
0.000179074
0.000166839
0.000154738
0.000142932
0.000131396
0.000120672
0.000110025
0.000104305
9.07588e-05
0.397799
0.291359
0.237219
0.438886
0.525434
0.465815
0.33821
0.216125
0.122453
0.0602443
0.0257568
0.0100496
0.00307759
0.00390031
8.07375e-05
0.00382084
0.00882371
0.0142186
0.0177624
0.0202336
0.0215967
0.0218822
0.0213142
0.0198173
0.0176686
0.014977
0.0119698
0.00881834
0.00560048
0.00303555
0.0014394
0.00212545
0.00152608
0.000155646
6.14041e-05
0.000125746
0.000147709
0.000277213
0.000363797
0.000397727
0.000390916
0.000376675
0.000360977
0.000342197
0.000341533
0.000313054
0.000283426
0.000289452
0.000312585
0.000326898
0.00032632
0.000313441
0.000300393
0.00028893
0.000281249
0.0002743
0.000267411
0.000268803
0.000267397
0.000258891
0.000243964
0.000227258
0.000211908
0.000198884
0.000187365
0.000175988
0.000164572
0.000153291
0.000142265
0.000131522
0.000121568
0.000111719
0.000106399
9.32341e-05
0.356285
0.347978
0.325335
0.213363
0.36958
0.478848
0.424314
0.309537
0.204558
0.124825
0.0703149
0.0373183
0.0199278
0.0127539
0.0122661
0.0143349
0.0209027
0.0270555
0.0318043
0.035311
0.0375365
0.0386171
0.0387125
0.0377674
0.0359581
0.0333602
0.0300746
0.0261848
0.0216676
0.0168018
0.0118494
0.00714807
0.00335317
0.000870417
0.00180888
0.00142983
0.000100567
2.86266e-05
0.000167863
0.000194344
0.000257853
0.000323273
0.000358141
0.000351421
0.000342839
0.000316946
0.000279961
0.000259813
0.000268138
0.000290705
0.000309411
0.00031122
0.000302906
0.000289318
0.000277722
0.000268492
0.000259725
0.000257289
0.0002571
0.000253295
0.00024265
0.000227517
0.000211408
0.000197053
0.000184917
0.000173779
0.000163068
0.000152639
0.000142413
0.000132416
0.000123121
0.000113933
0.000108942
9.59141e-05
0.271578
0.311212
0.355416
0.400606
0.320575
0.299573
0.418232
0.381092
0.289562
0.204159
0.13825
0.0919223
0.0621836
0.0455085
0.0382397
0.0362635
0.0397565
0.0444842
0.0485799
0.0517413
0.0539037
0.0551643
0.0555755
0.0550581
0.0537208
0.0516118
0.04883
0.0454299
0.0413147
0.0365697
0.0312171
0.0252501
0.0190721
0.0130056
0.00757219
0.00337327
0.000599716
0.00165391
0.00129468
0.000471021
4.04873e-05
0.000149113
0.000213598
0.000259605
0.000312999
0.000334794
0.000314351
0.00027747
0.000252667
0.000251364
0.000270977
0.000288752
0.000296094
0.000290019
0.000278422
0.000266406
0.000255424
0.000248479
0.000246138
0.000244561
0.00023858
0.00022731
0.000212633
0.000197783
0.000184681
0.000173079
0.000162563
0.000152779
0.000143319
0.000134054
0.000125356
0.000116711
0.000111978
9.89064e-05
0.173889
0.224142
0.282794
0.360293
0.404502
0.349481
0.23901
0.341131
0.334948
0.273593
0.209577
0.157656
0.119669
0.094086
0.0784382
0.0696455
0.0670275
0.0673266
0.0682042
0.0691027
0.0697459
0.0700779
0.0700003
0.0693528
0.0681471
0.0663584
0.0640853
0.0613846
0.0581823
0.0545159
0.0502856
0.0453296
0.0396766
0.0332433
0.0263718
0.0193584
0.0127805
0.00725834
0.0031417
0.000545416
0.0014617
0.00110646
0.00030811
0.00013129
5.9498e-06
0.000154132
0.0002426
0.000276283
0.000273168
0.000255199
0.000251371
0.000259084
0.000272047
0.000278112
0.000275739
0.000266707
0.000254903
0.000244049
0.000237253
0.000234347
0.00023112
0.000224365
0.000213276
0.000199967
0.000186823
0.000174624
0.000163695
0.000153984
0.00014497
0.000136324
0.000128181
0.000120011
0.000115478