/*--------------------------------*- C++ -*----------------------------------*\
| =========                 |                                                 |
| \\      /  F ield         | OpenFOAM: The Open Source CFD Toolbox           |
|  \\    /   O peration     | Version:  2312                                  |
|   \\  /    A nd           | Website:  www.openfoam.com                      |
|    \\/     M anipulation  |                                                 |
\*---------------------------------------------------------------------------*/
FoamFile
{
    version     2.0;
    format      ascii;
    arch        "LSB;label=32;scalar=64";
    class       volScalarField;
    location    "50";
    object      turbulenceProperties:epsilon;
}
// * * * * * * * * * * * * * * * * * * * * * * * * * * * * * * * * * * * * * //

dimensions      [0 2 -3 0 0 0 0];

internalField   nonuniform List<scalar> 
11040
(
665.823
2662.36
5644.71
8554.33
11669.2
17130.5
29228.8
35590.4
37248.2
38402.1
39883.4
41505.6
42898.4
43747.5
43929.8
43458.6
42366.2
40623.3
38258.9
35401.3
32094.9
28560.1
25189.5
21970.4
18777.7
15690.8
12823.2
10309.5
8198.86
6376.89
4723.87
3213.15
2000.77
1333.79
1158.91
992.064
444.074
35.6962
11.5803
23.0604
98.0933
22.8757
31.1339
54.7492
127.053
416.825
1195.36
2957.81
5190.06
6789.65
7560.45
7735.31
7507.39
6998.92
6278.37
5425.95
4539.12
3704.33
2996.48
2442.19
2012.89
1687.98
1448.54
1265.33
1121.83
1016.86
934.477
856.141
774.384
687.114
605.301
531.325
467.948
413.104
332.895
195.945
72.4869
31.6616
47.1422
178.465
126.213
471.779
7.79553
3.66485
3.2838
2.88262
1.69807
0.344349
1.1298
13.5913
47.0205
99.9656
176.126
290.748
462.121
700.062
991.223
1298.7
1575.04
1771.43
1854.22
1823.28
1702.39
1538.12
1372.07
1215.51
1078.73
957.614
851.96
757.474
673.699
598.776
533.158
483.916
447.162
373.539
235.638
122.512
113.075
201.574
244.667
118.482
159.936
3.71387
3.33042
2.75421
1.98807
1.30205
0.799723
0.36847
0.119871
0.0353918
0.0122394
0.00520565
0.00242544
0.00150165
0.0342532
0.656616
4.01295
14.4679
39.8616
90.4107
174.032
291.941
427.636
554.106
656.939
731.942
772.37
780.805
762.823
727.309
682.729
636.18
596.275
555.064
466.239
330.897
244.729
264.153
324.488
287.969
140.743
143.536
1.74314
1.64842
1.3483
0.976391
0.673666
0.490164
0.380263
0.285635
0.195737
0.125476
0.0781122
0.046654
0.0250096
0.011096
0.000602067
1.87146e-05
3.67512e-05
0.000348412
0.00540356
0.030743
0.513752
3.57164
13.0677
33.9325
71.2625
127.978
202.479
288.629
377.483
459.817
527.731
575.728
589.659
540.576
447.751
391.757
410.84
433.348
365.14
213.424
201.748
0.794864
0.817065
0.788445
0.685909
0.545557
0.414105
0.31275
0.23685
0.175302
0.12376
0.0839396
0.0570585
0.0409526
0.0314572
0.024298
0.0183826
0.0121239
0.00571391
0.000565141
1.53427e-06
9.59932e-05
0.00093274
0.00467295
0.0180025
0.0922769
0.68861
3.29865
11.1234
29.6354
66.8098
131.308
225.306
331.698
413.321
451.392
472.82
506.082
516.284
449.244
322.112
297.187
0.377048
0.400607
0.418543
0.402066
0.352406
0.288857
0.228551
0.178071
0.136413
0.101638
0.0736578
0.0528328
0.0385843
0.0294092
0.0236482
0.0196172
0.016566
0.0138
0.0110194
0.0078542
0.00474419
0.00248654
0.000368325
0.000499921
0.00329044
4.0309e-08
3.13665e-07
0.000176458
0.0465713
0.515935
3.07458
13.3162
42.0736
100.998
193.259
305.974
414.048
480.779
465.686
389.166
367.509
0.182497
0.195604
0.213209
0.221138
0.21269
0.191234
0.1641
0.136582
0.110556
0.0864756
0.0651961
0.0478437
0.0349578
0.0260715
0.0201173
0.0161336
0.0134205
0.0114049
0.00971291
0.00825194
0.00686776
0.00578009
0.00485811
0.00354064
0.00207379
0.00111274
4.25785e-05
1.11182e-05
0.000189932
0.00556727
0.00281813
0.0256425
0.359446
3.02701
15.5254
53.0492
124.217
211.645
268.332
270.856
288.405
0.0902711
0.0966468
0.106842
0.115889
0.11933
0.115854
0.106829
0.0945449
0.080721
0.0665396
0.0530326
0.0411672
0.0316232
0.0244918
0.0193496
0.0156736
0.0130472
0.0111166
0.00956382
0.00821321
0.00707404
0.0062223
0.00576812
0.00558875
0.0051291
0.00451426
0.00359
0.00226618
0.00114499
0.000127518
6.30345e-08
6.43514e-05
0.000936481
0.0216557
0.000902009
0.6884
5.65179
21.6979
47.2164
64.952
89.8426
0.045189
0.0481314
0.0531552
0.0588175
0.0632381
0.0650885
0.0639914
0.060335
0.0547959
0.0480188
0.0406868
0.0334825
0.0270079
0.0216385
0.0174046
0.0141519
0.0117076
0.00989943
0.00852812
0.00738606
0.00636549
0.00550306
0.00485833
0.00444893
0.00423425
0.004084
0.00401841
0.00386664
0.00361927
0.00274056
0.00146137
0.000721303
1.94485e-05
3.98258e-07
2.40637e-07
0.000668048
2.63873e-06
0.190612
1.30062
3.57135
7.07506
0.0227959
0.0241493
0.0264749
0.0294245
0.0323592
0.0346316
0.0357836
0.0356231
0.0341868
0.0316644
0.028363
0.0246496
0.0209126
0.0174893
0.0145492
0.0121293
0.010201
0.00870729
0.0075577
0.00662139
0.00578191
0.00502456
0.00438736
0.00390151
0.00359078
0.00342572
0.0033393
0.0032786
0.00323054
0.00316181
0.00295929
0.00260687
0.0019503
0.00119519
6.05282e-05
2.378e-07
1.3818e-08
0.000802182
0.0181258
0.00213006
0.174732
0.0115443
0.0121669
0.0132125
0.0146283
0.0162162
0.0177355
0.018951
0.0196741
0.0197904
0.0192705
0.0181922
0.016681
0.0149117
0.0130763
0.0113256
0.00975017
0.00838828
0.00725239
0.00632638
0.00556241
0.00490009
0.00431285
0.00380139
0.00337979
0.0030691
0.00287998
0.00277383
0.00269252
0.00259345
0.00247222
0.00229377
0.00204708
0.00190024
0.00193695
0.00167331
0.000705077
6.89392e-05
8.26885e-09
4.71348e-08
6.8123e-07
3.30011e-10
0.00585546
0.00614233
0.00660884
0.0072644
0.00805146
0.00889046
0.00969226
0.0103625
0.0108145
0.0109853
0.0108545
0.0104408
0.00979358
0.00899388
0.0081274
0.00726026
0.00643954
0.00569381
0.00503681
0.00446681
0.00396844
0.00353408
0.00315269
0.00282075
0.00255065
0.0023473
0.00219799
0.00208336
0.00197375
0.00185266
0.00170352
0.00150771
0.0012996
0.0011992
0.00128254
0.00134994
0.00114854
0.000828036
0.000692383
0.000226868
5.25648e-06
0.00296791
0.00310107
0.00330901
0.00360773
0.00398113
0.00440417
0.0048478
0.00527599
0.00564768
0.00592213
0.00607129
0.00608079
0.00595222
0.00570459
0.00536873
0.00497663
0.0045565
0.00413154
0.00372206
0.00334032
0.00299261
0.00268638
0.00241645
0.00217412
0.00196173
0.00177815
0.00162874
0.00151043
0.00141159
0.00132107
0.00123091
0.00112916
0.00100545
0.000892538
0.000859744
0.000920603
0.000989498
0.00107745
0.00150615
0.00238562
0.00153788
0.0015012
0.00156327
0.00165639
0.00179158
0.0019648
0.00216823
0.00239309
0.00262754
0.00285594
0.00305964
0.00322178
0.00332874
0.00337144
0.00334798
0.00326258
0.00312589
0.00295022
0.00274902
0.00253525
0.00232003
0.00211009
0.00191721
0.00174436
0.00158507
0.00143985
0.0013095
0.00119757
0.00110322
0.00102427
0.000956885
0.000897822
0.000842189
0.000783402
0.000720515
0.000673727
0.000673018
0.000710765
0.000728203
0.000769033
0.00110761
0.00150427
0.000757416
0.000786354
0.000828331
0.000889179
0.000968327
0.00106341
0.00117185
0.00129006
0.00141271
0.00153258
0.00164198
0.00173348
0.00180029
0.00183775
0.00184397
0.00181975
0.00176926
0.00169729
0.00160929
0.00151121
0.00140618
0.00130165
0.00120282
0.0011085
0.00101941
0.000936705
0.000861747
0.000794592
0.000737413
0.000689081
0.000648051
0.000612239
0.000578935
0.000544705
0.000510801
0.000487373
0.000480868
0.000480356
0.000464742
0.000469183
0.000533709
0.000383016
0.000396382
0.000415428
0.000442752
0.000478641
0.000522457
0.000573424
0.000630461
0.000691857
0.000755099
0.000817216
0.000875103
0.000925446
0.000965279
0.000992379
0.00100544
0.00100399
0.000988871
0.000961459
0.000924218
0.000878168
0.000827061
0.000775022
0.000722434
0.000670762
0.000621188
0.000574193
0.000532168
0.000495166
0.000462902
0.000434442
0.000408782
0.000384368
0.000360068
0.000335143
0.000310742
0.000289643
0.000275595
0.000263467
0.000246952
0.000235496
0.000198779
0.0002051
0.000214068
0.000226776
0.000243582
0.000264339
0.000288767
0.000316489
0.000346924
0.000379177
0.000412136
0.000444573
0.000475043
0.000502027
0.000524072
0.000539992
0.000548949
0.000550481
0.000544481
0.000531647
0.000512348
0.000488434
0.000461975
0.000434073
0.000405722
0.000377921
0.00035117
0.00032617
0.000302961
0.000281379
0.000261208
0.000242211
0.000223997
0.00020621
0.000188696
0.000171596
0.000155607
0.000141756
0.000130115
0.00012124
0.000112681
0.000108172
0.000111363
0.00011587
0.000122165
0.000130531
0.000140945
0.000153284
0.00016737
0.000182962
0.000199673
0.000217028
0.000234473
0.000251348
0.000266906
0.000280378
0.000291082
0.000298453
0.00030214
0.000301943
0.000298005
0.000289982
0.00027875
0.000265812
0.000251551
0.000236675
0.00022176
0.000206697
0.000191847
0.000177474
0.000163621
0.000150403
0.000137816
0.000125891
0.000114471
0.000103524
9.30375e-05
8.32974e-05
7.45224e-05
6.64022e-05
6.03373e-05
5.46264e-05
6.18153e-05
6.35142e-05
6.59024e-05
6.91856e-05
7.35707e-05
7.90715e-05
8.56203e-05
9.31242e-05
0.000101468
0.000110475
0.000119928
0.000129579
0.000139126
0.000148208
0.000156455
0.00016348
0.00016895
0.00017256
0.000174083
0.000173459
0.000170294
0.00016504
0.000158465
0.000150936
0.000142883
0.000134383
0.000125683
0.000116832
0.000108099
9.94684e-05
9.11723e-05
8.32578e-05
7.57859e-05
6.87071e-05
6.2002e-05
5.56159e-05
4.96543e-05
4.4244e-05
3.90546e-05
3.48888e-05
3.08384e-05
3.66864e-05
3.76185e-05
3.89319e-05
4.07134e-05
4.31067e-05
4.61343e-05
4.97514e-05
5.39075e-05
5.85386e-05
6.35604e-05
6.88632e-05
7.43297e-05
7.98111e-05
8.51321e-05
9.00959e-05
9.45015e-05
9.81539e-05
0.000100877
0.000102528
0.000103074
0.000102259
0.000100037
9.69332e-05
9.30441e-05
8.85903e-05
8.3731e-05
7.86124e-05
7.32474e-05
6.78962e-05
6.2773e-05
5.77471e-05
5.2885e-05
4.82525e-05
4.38296e-05
3.95877e-05
3.55165e-05
3.16358e-05
2.80243e-05
2.45264e-05
2.15734e-05
1.86026e-05
2.24484e-05
2.29755e-05
2.37231e-05
2.47232e-05
2.6076e-05
2.77978e-05
2.98601e-05
3.22286e-05
3.48658e-05
3.77231e-05
4.07396e-05
4.3852e-05
4.69788e-05
5.00283e-05
5.28936e-05
5.54708e-05
5.76431e-05
5.93195e-05
6.03958e-05
6.08484e-05
6.05356e-05
5.94841e-05
5.78905e-05
5.58153e-05
5.33543e-05
5.05806e-05
4.75986e-05
4.45455e-05
4.1456e-05
3.83837e-05
3.53658e-05
3.24343e-05
2.9588e-05
2.68208e-05
2.4135e-05
2.15484e-05
1.90867e-05
1.67785e-05
1.456e-05
1.27132e-05
1.08099e-05
1.40818e-05
1.43885e-05
1.48281e-05
1.54068e-05
1.61949e-05
1.72034e-05
1.84135e-05
1.98014e-05
2.13443e-05
2.30122e-05
2.47695e-05
2.65796e-05
2.83965e-05
3.01691e-05
3.18375e-05
3.33438e-05
3.46251e-05
3.56238e-05
3.6284e-05
3.65802e-05
3.64245e-05
3.57994e-05
3.48263e-05
3.35447e-05
3.20127e-05
3.0322e-05
2.85274e-05
2.66952e-05
2.48264e-05
2.29545e-05
2.11219e-05
1.93182e-05
1.75722e-05
1.58966e-05
1.4297e-05
1.27842e-05
1.1383e-05
1.00956e-05
8.87292e-06
7.91717e-06
6.85115e-06
9.01843e-06
9.20328e-06
9.46817e-06
9.81279e-06
1.02845e-05
1.08916e-05
1.16203e-05
1.2455e-05
1.33803e-05
1.43781e-05
1.54264e-05
1.6503e-05
1.75813e-05
1.86315e-05
1.96199e-05
2.05128e-05
2.12759e-05
2.18775e-05
2.22829e-05
2.24823e-05
2.24054e-05
2.2052e-05
2.1486e-05
2.07365e-05
1.98525e-05
1.88761e-05
1.78267e-05
1.67326e-05
1.56099e-05
1.44491e-05
1.33301e-05
1.22713e-05
1.12503e-05
1.02816e-05
9.36726e-06
8.50537e-06
7.70962e-06
6.97984e-06
6.27992e-06
5.73004e-06
5.14267e-06
5.87789e-06
5.99155e-06
6.15573e-06
6.3663e-06
6.65602e-06
7.03025e-06
7.47949e-06
7.99267e-06
8.56011e-06
9.16962e-06
9.80822e-06
1.04613e-05
1.11139e-05
1.17467e-05
1.23421e-05
1.28786e-05
1.33383e-05
1.37003e-05
1.39469e-05
1.40673e-05
1.40254e-05
1.38218e-05
1.34956e-05
1.30713e-05
1.25718e-05
1.20066e-05
1.13921e-05
1.0736e-05
1.00696e-05
9.38248e-06
8.717e-06
8.10503e-06
7.51924e-06
6.95883e-06
6.4243e-06
5.91684e-06
5.44456e-06
5.00852e-06
4.59462e-06
4.23455e-06
3.97743e-06
3.88864e-06
3.96007e-06
4.06439e-06
4.19655e-06
4.37867e-06
4.61461e-06
4.89756e-06
5.21988e-06
5.57495e-06
5.95482e-06
6.35123e-06
6.75482e-06
7.15631e-06
7.54397e-06
7.90722e-06
8.23354e-06
8.51239e-06
8.73173e-06
8.88112e-06
8.95491e-06
8.93258e-06
8.8126e-06
8.62084e-06
8.37017e-06
8.06867e-06
7.7248e-06
7.35136e-06
6.95589e-06
6.55754e-06
6.16558e-06
5.76555e-06
5.38583e-06
5.04467e-06
4.70671e-06
4.38264e-06
4.07933e-06
3.80019e-06
3.54428e-06
3.31148e-06
3.08615e-06
3.00049e-06
2.60552e-06
2.65199e-06
2.7197e-06
2.80442e-06
2.92148e-06
3.07334e-06
3.25528e-06
3.46184e-06
3.68849e-06
3.92988e-06
4.18059e-06
4.43458e-06
4.68587e-06
4.92731e-06
5.15218e-06
5.35327e-06
5.52401e-06
5.65751e-06
5.74822e-06
5.79259e-06
5.77979e-06
5.70747e-06
5.59336e-06
5.4424e-06
5.26144e-06
5.05868e-06
4.83902e-06
4.60998e-06
4.37772e-06
4.1462e-06
3.90093e-06
3.66715e-06
3.45931e-06
3.25415e-06
3.06098e-06
2.88522e-06
2.72717e-06
2.58383e-06
2.461e-06
2.33003e-06
2.32931e-06
1.76555e-06
1.79586e-06
1.84071e-06
1.89632e-06
1.97308e-06
2.07289e-06
2.19213e-06
2.32715e-06
2.47448e-06
2.63081e-06
2.79216e-06
2.95494e-06
3.11486e-06
3.2678e-06
3.40919e-06
3.53506e-06
3.6412e-06
3.72394e-06
3.7798e-06
3.80708e-06
3.79844e-06
3.75369e-06
3.68452e-06
3.59399e-06
3.48877e-06
3.37185e-06
3.24656e-06
3.11598e-06
2.97917e-06
2.84111e-06
2.69226e-06
2.5537e-06
2.42851e-06
2.31028e-06
2.20135e-06
2.10342e-06
2.01617e-06
1.93712e-06
1.87495e-06
1.79759e-06
1.84198e-06
1.20752e-06
1.22792e-06
1.25802e-06
1.2953e-06
1.34673e-06
1.41358e-06
1.49324e-06
1.58312e-06
1.6807e-06
1.78377e-06
1.88954e-06
1.99574e-06
2.09944e-06
2.1981e-06
2.28863e-06
2.36879e-06
2.43595e-06
2.48823e-06
2.52365e-06
2.54124e-06
2.53712e-06
2.51169e-06
2.47161e-06
2.41894e-06
2.35574e-06
2.28522e-06
2.20878e-06
2.12907e-06
2.04701e-06
1.96771e-06
1.88637e-06
1.80626e-06
1.7343e-06
1.67421e-06
1.61509e-06
1.55998e-06
1.51053e-06
1.46527e-06
1.43383e-06
1.38371e-06
1.44422e-06
8.3271e-07
8.46395e-07
8.66989e-07
8.92474e-07
9.27607e-07
9.73201e-07
1.02739e-06
1.08829e-06
1.15413e-06
1.22329e-06
1.2939e-06
1.36441e-06
1.43293e-06
1.49776e-06
1.55699e-06
1.60913e-06
1.65258e-06
1.68615e-06
1.70875e-06
1.71992e-06
1.71732e-06
1.7025e-06
1.67891e-06
1.64763e-06
1.61024e-06
1.56808e-06
1.52351e-06
1.47836e-06
1.43332e-06
1.38993e-06
1.34613e-06
1.30334e-06
1.26671e-06
1.23263e-06
1.19824e-06
1.16609e-06
1.13747e-06
1.11074e-06
1.09527e-06
1.06117e-06
1.12305e-06
5.78225e-07
5.87507e-07
6.01738e-07
6.19481e-07
6.43944e-07
6.75536e-07
7.13044e-07
7.54996e-07
8.00219e-07
8.47395e-07
8.95379e-07
9.42926e-07
9.8899e-07
1.03231e-06
1.07182e-06
1.10639e-06
1.13513e-06
1.15718e-06
1.17189e-06
1.17889e-06
1.17678e-06
1.16693e-06
1.1521e-06
1.13363e-06
1.11238e-06
1.08955e-06
1.06562e-06
1.0416e-06
1.01824e-06
9.95067e-07
9.71947e-07
9.49648e-07
9.32334e-07
9.12684e-07
8.94303e-07
8.77269e-07
8.6189e-07
8.46537e-07
8.39889e-07
8.15982e-07
8.72725e-07
4.03868e-07
4.10186e-07
4.20176e-07
4.32738e-07
4.50071e-07
4.72328e-07
4.98672e-07
5.28027e-07
5.59579e-07
5.92323e-07
6.25478e-07
6.58098e-07
6.89576e-07
7.19011e-07
7.45824e-07
7.69176e-07
7.88635e-07
8.0352e-07
8.13593e-07
8.18593e-07
8.17625e-07
8.12041e-07
8.03463e-07
7.92696e-07
7.80507e-07
7.67384e-07
7.53932e-07
7.40142e-07
7.27111e-07
7.14597e-07
7.04475e-07
6.92627e-07
6.86636e-07
6.81276e-07
6.72729e-07
6.64713e-07
6.57105e-07
6.48531e-07
6.46507e-07
6.28992e-07
6.77787e-07
2.83436e-07
2.87794e-07
2.94883e-07
3.03994e-07
3.16474e-07
3.32393e-07
3.51136e-07
3.7196e-07
3.94267e-07
4.17366e-07
4.4065e-07
4.63481e-07
4.85388e-07
5.05815e-07
5.24368e-07
5.40591e-07
5.54171e-07
5.64699e-07
5.72036e-07
5.75821e-07
5.76063e-07
5.73084e-07
5.68417e-07
5.6218e-07
5.54978e-07
5.4738e-07
5.39788e-07
5.32566e-07
5.25819e-07
5.19847e-07
5.15164e-07
5.10005e-07
5.09445e-07
5.09644e-07
5.04982e-07
5.01268e-07
4.98134e-07
4.94159e-07
4.95134e-07
4.82498e-07
5.23813e-07
1.99643e-07
2.02684e-07
2.07832e-07
2.14591e-07
2.23727e-07
2.35319e-07
2.48807e-07
2.63763e-07
2.79689e-07
2.9621e-07
3.1279e-07
3.2908e-07
3.44606e-07
3.59113e-07
3.72234e-07
3.83818e-07
3.93598e-07
4.01417e-07
4.07133e-07
4.10371e-07
4.11145e-07
4.09861e-07
4.07326e-07
4.03907e-07
3.99928e-07
3.95822e-07
3.91904e-07
3.88234e-07
3.85194e-07
3.82582e-07
3.8068e-07
3.78223e-07
3.7968e-07
3.81294e-07
3.7844e-07
3.77011e-07
3.76338e-07
3.75185e-07
3.77907e-07
3.69329e-07
4.04965e-07
1.40971e-07
1.43138e-07
1.46969e-07
1.52079e-07
1.58945e-07
1.67494e-07
1.77355e-07
1.88197e-07
1.99708e-07
2.11617e-07
2.23576e-07
2.35323e-07
2.46544e-07
2.5703e-07
2.66531e-07
2.74956e-07
2.82157e-07
2.88068e-07
2.92613e-07
2.9562e-07
2.97044e-07
2.97059e-07
2.96217e-07
2.94525e-07
2.92394e-07
2.90091e-07
2.87892e-07
2.86081e-07
2.84419e-07
2.83187e-07
2.82373e-07
2.81663e-07
2.82984e-07
2.84931e-07
2.83999e-07
2.84063e-07
2.84582e-07
2.84701e-07
2.8759e-07
2.81318e-07
3.11552e-07
9.9692e-08
1.01262e-07
1.04172e-07
1.08137e-07
1.13358e-07
1.19776e-07
1.27088e-07
1.35054e-07
1.43469e-07
1.52139e-07
1.60843e-07
1.69396e-07
1.77598e-07
1.85289e-07
1.92302e-07
1.98554e-07
2.0398e-07
2.08541e-07
2.12259e-07
2.14992e-07
2.16736e-07
2.17555e-07
2.17592e-07
2.16986e-07
2.15848e-07
2.14457e-07
2.13011e-07
2.11596e-07
2.10139e-07
2.09111e-07
2.08597e-07
2.09117e-07
2.09361e-07
2.12492e-07
2.15029e-07
2.14786e-07
2.15653e-07
2.1641e-07
2.19029e-07
2.14206e-07
2.3882e-07
7.05419e-08
7.17053e-08
7.39583e-08
7.70573e-08
8.10763e-08
8.59418e-08
9.14266e-08
9.73692e-08
1.03614e-07
1.10017e-07
1.16429e-07
1.22719e-07
1.28761e-07
1.34444e-07
1.3968e-07
1.44391e-07
1.48544e-07
1.52131e-07
1.55134e-07
1.57599e-07
1.59338e-07
1.60486e-07
1.61132e-07
1.61179e-07
1.60832e-07
1.6017e-07
1.59178e-07
1.57858e-07
1.56695e-07
1.55915e-07
1.55681e-07
1.56103e-07
1.56652e-07
1.59181e-07
1.61348e-07
1.61572e-07
1.62783e-07
1.63923e-07
1.66318e-07
1.63162e-07
1.82658e-07
4.99086e-08
5.07901e-08
5.25555e-08
5.49817e-08
5.80838e-08
6.17687e-08
6.59233e-08
7.03984e-08
7.51049e-08
7.99135e-08
8.47332e-08
8.94317e-08
9.39534e-08
9.8188e-08
1.02116e-07
1.05665e-07
1.08841e-07
1.11604e-07
1.13984e-07
1.15953e-07
1.1755e-07
1.1885e-07
1.19849e-07
1.20566e-07
1.20894e-07
1.20813e-07
1.20298e-07
1.19656e-07
1.18907e-07
1.1835e-07
1.18157e-07
1.18218e-07
1.18296e-07
1.19627e-07
1.20922e-07
1.2117e-07
1.22246e-07
1.23404e-07
1.25481e-07
1.23621e-07
1.38854e-07
3.52875e-08
3.5968e-08
3.73522e-08
3.92549e-08
4.16256e-08
4.44262e-08
4.7559e-08
5.09359e-08
5.44946e-08
5.81548e-08
6.18379e-08
6.54437e-08
6.89034e-08
7.21415e-08
7.51237e-08
7.78214e-08
8.02382e-08
8.23722e-08
8.4238e-08
8.58594e-08
8.71757e-08
8.83116e-08
8.92673e-08
9.00151e-08
9.05494e-08
9.08072e-08
9.09145e-08
9.08896e-08
9.07864e-08
9.05396e-08
9.01186e-08
8.98013e-08
8.96191e-08
8.99452e-08
9.03033e-08
9.04431e-08
9.10958e-08
9.18393e-08
9.32319e-08
9.22166e-08
1.02714e-07
2.49317e-08
2.54639e-08
2.65462e-08
2.80124e-08
2.98189e-08
3.19237e-08
3.4275e-08
3.68118e-08
3.94903e-08
4.22682e-08
4.50915e-08
4.78951e-08
5.061e-08
5.31707e-08
5.55228e-08
5.76326e-08
5.94967e-08
6.11389e-08
6.25842e-08
6.38609e-08
6.50399e-08
6.60851e-08
6.70942e-08
6.79604e-08
6.86481e-08
6.93037e-08
6.99201e-08
7.04283e-08
7.07832e-08
7.09983e-08
7.10398e-08
7.09797e-08
7.09177e-08
7.10859e-08
7.10959e-08
7.09633e-08
7.11496e-08
7.14002e-08
7.20266e-08
7.13721e-08
7.81729e-08
1.76103e-08
1.80351e-08
1.88731e-08
1.99839e-08
2.13169e-08
2.28663e-08
2.46054e-08
2.64931e-08
2.85052e-08
3.06104e-08
3.27659e-08
3.49334e-08
3.70651e-08
3.91176e-08
4.10355e-08
4.27782e-08
4.43056e-08
4.56065e-08
4.66832e-08
4.75592e-08
4.82617e-08
4.8867e-08
4.93615e-08
4.97789e-08
5.02041e-08
5.06203e-08
5.10026e-08
5.13816e-08
5.16771e-08
5.18095e-08
5.19437e-08
5.21473e-08
5.23858e-08
5.25451e-08
5.27193e-08
5.2903e-08
5.30616e-08
5.32148e-08
5.34888e-08
5.3291e-08
5.65568e-08
1.24333e-08
1.27852e-08
1.3443e-08
1.42723e-08
1.52284e-08
1.63217e-08
1.75401e-08
1.88875e-08
2.03545e-08
2.19318e-08
2.35865e-08
2.52838e-08
2.69739e-08
2.86221e-08
3.01916e-08
3.16645e-08
3.30252e-08
3.42693e-08
3.5401e-08
3.64074e-08
3.73313e-08
3.81041e-08
3.88034e-08
3.94694e-08
4.01079e-08
4.07203e-08
4.13068e-08
4.17764e-08
4.21483e-08
4.24878e-08
4.27451e-08
4.28773e-08
4.30019e-08
4.31708e-08
4.31528e-08
4.30513e-08
4.29896e-08
4.28719e-08
4.27075e-08
4.22734e-08
4.38685e-08
8.76362e-09
9.05116e-09
9.56965e-09
1.02012e-08
1.09014e-08
1.1668e-08
1.24973e-08
1.33922e-08
1.43613e-08
1.54204e-08
1.65792e-08
1.78365e-08
1.91699e-08
2.05361e-08
2.18728e-08
2.31114e-08
2.41916e-08
2.50675e-08
2.572e-08
2.61723e-08
2.64037e-08
2.64901e-08
2.65016e-08
2.64839e-08
2.64685e-08
2.64806e-08
2.65039e-08
2.65724e-08
2.6703e-08
2.68621e-08
2.70674e-08
2.72924e-08
2.74938e-08
2.77556e-08
2.78964e-08
2.80043e-08
2.8244e-08
2.84156e-08
2.83855e-08
2.85193e-08
2.87634e-08
6.15902e-09
6.36155e-09
6.73134e-09
7.18601e-09
7.70554e-09
8.28812e-09
8.92098e-09
9.58463e-09
1.02618e-08
1.09448e-08
1.16389e-08
1.23656e-08
1.31564e-08
1.40464e-08
1.50665e-08
1.6232e-08
1.75379e-08
1.89571e-08
2.04412e-08
2.19246e-08
2.33552e-08
2.46555e-08
2.58173e-08
2.6784e-08
2.75738e-08
2.81985e-08
2.86891e-08
2.90618e-08
2.93298e-08
2.95154e-08
2.95787e-08
2.95342e-08
2.93683e-08
2.91015e-08
2.86969e-08
2.82145e-08
2.76981e-08
2.7107e-08
2.63548e-08
2.57537e-08
2.55582e-08
4.34284e-09
4.4652e-09
4.67837e-09
4.92523e-09
5.20863e-09
5.55924e-09
5.99592e-09
6.52688e-09
7.14411e-09
7.82232e-09
8.51716e-09
9.17441e-09
9.74114e-09
1.01818e-08
1.0483e-08
1.0658e-08
1.07373e-08
1.07565e-08
1.07482e-08
1.07418e-08
1.07233e-08
1.07007e-08
1.06835e-08
1.06861e-08
1.07117e-08
1.0772e-08
1.08737e-08
1.10179e-08
1.1192e-08
1.14002e-08
1.162e-08
1.18595e-08
1.21076e-08
1.23935e-08
1.2621e-08
1.2875e-08
1.32378e-08
1.35961e-08
1.37781e-08
1.443e-08
1.37733e-08
3.1173e-09
3.22592e-09
3.37821e-09
3.50531e-09
3.60077e-09
3.68674e-09
3.78403e-09
3.91314e-09
4.10037e-09
4.38071e-09
4.79515e-09
5.39017e-09
6.20649e-09
7.27321e-09
8.5957e-09
1.01511e-08
1.1888e-08
1.37356e-08
1.56126e-08
1.74301e-08
1.91583e-08
2.07569e-08
2.21752e-08
2.33762e-08
2.4374e-08
2.51825e-08
2.58135e-08
2.62742e-08
2.65393e-08
2.6631e-08
2.65357e-08
2.62386e-08
2.57173e-08
2.50446e-08
2.42779e-08
2.334e-08
2.2342e-08
2.13667e-08
2.02658e-08
1.95112e-08
1.78334e-08
2.2967e-09
2.41931e-09
2.60306e-09
2.78168e-09
2.9198e-09
3.00142e-09
3.01717e-09
2.97126e-09
2.88315e-09
2.78374e-09
2.70704e-09
2.68263e-09
2.73043e-09
2.85698e-09
3.05408e-09
3.30345e-09
3.57857e-09
3.85559e-09
4.11146e-09
4.34441e-09
4.53899e-09
4.69212e-09
4.82352e-09
4.96723e-09
5.12709e-09
5.30976e-09
5.46971e-09
5.65901e-09
5.91736e-09
6.18641e-09
6.44859e-09
6.72305e-09
7.06774e-09
7.35659e-09
7.68303e-09
8.15599e-09
8.45197e-09
8.50673e-09
8.46354e-09
7.63603e-09
9.09051e-09
1.71119e-09
1.72965e-09
1.88022e-09
2.3198e-09
3.21078e-09
4.65593e-09
6.65346e-09
9.10596e-09
1.18505e-08
1.46934e-08
1.74406e-08
1.99222e-08
2.201e-08
2.36287e-08
2.47531e-08
2.54047e-08
2.56405e-08
2.55365e-08
2.51784e-08
2.46402e-08
2.40015e-08
2.35335e-08
2.30829e-08
2.26788e-08
2.23221e-08
2.19541e-08
2.15719e-08
2.10309e-08
2.02915e-08
1.94454e-08
1.85617e-08
1.77405e-08
1.6882e-08
1.58481e-08
1.48849e-08
1.40379e-08
1.30823e-08
1.20219e-08
1.0871e-08
1.04973e-08
7.72069e-09
7385.63
7219.39
7072.6
6024.56
2909.16
555.697
35.9194
2.3662
0.67107
0.178923
0.0536305
0.014838
0.0109262
0.0084128
0.00622778
0.00433368
0.00151791
5.09207e-05
2.51852e-05
6.00654e-06
1.34743e-05
8.78912e-08
4.10547e-08
1.14494e-06
1.13758e-05
3.80983e-05
0.000101012
0.000122277
0.000125398
8.16918e-05
9.29028e-05
4.28013e-05
0.000104355
9.06648e-05
0.000100265
7.63222e-05
5.84192e-05
7.0204e-05
5.00929e-05
4.46236e-05
4.0179e-05
3.57175e-05
3.02485e-05
2.44653e-05
2.03002e-05
2.21869e-05
2.33941e-05
1.93892e-05
1.5041e-05
1.28503e-05
1.15733e-05
1.07694e-05
9.84531e-06
9.02382e-06
8.23137e-06
7.47782e-06
6.68128e-06
7.42533e-06
5.71327e-06
4.4656e-06
3.66018e-06
3.04809e-06
2.50459e-06
2.00497e-06
1.56239e-06
1.18447e-06
8.73501e-07
6.25495e-07
4.35271e-07
2.93357e-07
1.93046e-07
1.20237e-07
9.11519e-08
4.50095e-08
2362.75
4707.98
5800.76
6773.13
5213.51
1908.18
275.166
17.408
1.58292
0.302645
0.0910381
0.0274409
0.0112538
0.00439145
0.00185188
0.000264303
1.54519e-06
4.82747e-11
0.000220671
0.000932631
0.000600849
0.000423009
9.59608e-05
1.1996e-12
3.09742e-08
9.43882e-08
1.10241e-11
3.57766e-06
2.31233e-05
5.2878e-05
0.000116747
6.75743e-05
0.000106115
7.77761e-05
7.30298e-05
5.2133e-05
3.82612e-05
4.79868e-05
3.91421e-05
3.56298e-05
3.37022e-05
3.15872e-05
2.86114e-05
2.33137e-05
1.86164e-05
2.58558e-05
2.67834e-05
2.65516e-05
2.27125e-05
1.9398e-05
1.73931e-05
1.6355e-05
1.53261e-05
1.42585e-05
1.31456e-05
1.2006e-05
1.0847e-05
8.98672e-06
5.77956e-06
4.33125e-06
3.43716e-06
2.81109e-06
2.29598e-06
1.83533e-06
1.4324e-06
1.08688e-06
8.03371e-07
5.78625e-07
4.06468e-07
2.77355e-07
1.85979e-07
1.19046e-07
9.17531e-08
4.75314e-08
458.911
1637.22
3091.61
5095.03
5984.05
3731.62
1064.85
125.521
7.61572
0.640344
0.125561
0.0382595
0.0082607
0.000839106
8.00961e-05
3.89915e-06
5.08378e-06
0.00352927
0.00255043
0.00351427
0.00280135
0.00427309
0.00351522
0.00107497
0.00384588
0.00230265
7.72582e-07
2.46515e-05
8.8989e-08
5.47657e-07
1.21661e-05
2.38873e-05
4.43571e-05
7.058e-05
8.09515e-05
5.81011e-05
3.15541e-05
2.71898e-05
2.61656e-05
2.37667e-05
2.35605e-05
2.40035e-05
2.34102e-05
2.01509e-05
1.67994e-05
1.53924e-05
1.76653e-05
2.14269e-05
2.09714e-05
1.79841e-05
1.55902e-05
1.4129e-05
1.34126e-05
1.26595e-05
1.18746e-05
1.09524e-05
1.02986e-05
6.63129e-06
5.45035e-06
4.23423e-06
3.25689e-06
2.57954e-06
2.07721e-06
1.66028e-06
1.303e-06
9.94177e-07
7.4016e-07
5.39204e-07
3.84843e-07
2.6801e-07
1.84821e-07
1.22748e-07
9.68052e-08
5.29136e-08
138.236
284.973
859.906
2303.86
4278.4
4532.54
2381.87
595.329
69.2418
4.65845
0.381124
0.0641105
0.0140725
0.00147199
5.21196e-07
0.00143328
0.00157801
0.0334163
0.0736079
0.108355
0.11284
0.0908972
0.0618383
0.0261291
0.00690572
0.0011364
0.00140796
0.000848394
0.00337447
0.00176037
0.000206643
9.38299e-08
1.41466e-07
3.85375e-07
1.40789e-05
3.4701e-05
3.26325e-05
2.93125e-05
2.60224e-05
1.91364e-05
1.62842e-05
1.65153e-05
1.6897e-05
1.54584e-05
1.4576e-05
9.29798e-06
8.08559e-06
1.06257e-05
1.25962e-05
1.2003e-05
1.02318e-05
8.52725e-06
7.65727e-06
7.05227e-06
6.62711e-06
6.12335e-06
5.75495e-06
5.57534e-06
5.07826e-06
4.15423e-06
3.17705e-06
2.43067e-06
1.90284e-06
1.50993e-06
1.19183e-06
9.17989e-07
6.91024e-07
5.10492e-07
3.70822e-07
2.64091e-07
1.87283e-07
1.28884e-07
1.03808e-07
5.91058e-08
243.842
74.7207
31.013
425.498
1746.09
3370.68
3211.45
1567.49
408.017
57.7301
5.05988
0.378796
0.0216022
0.0311811
8.13288e-09
0.0340517
0.203621
0.61212
1.07213
1.52495
1.81229
1.87237
1.73857
1.4074
1.01448
0.630029
0.32995
0.136435
0.0362498
0.00628078
0.000941903
0.00283006
0.00149778
2.8171e-07
4.5482e-09
1.21137e-07
2.72043e-07
4.50121e-06
1.37172e-05
1.94515e-05
1.84866e-05
1.62925e-05
1.39527e-05
1.13863e-05
1.13639e-05
8.06355e-06
5.45154e-06
5.96439e-06
8.15432e-06
9.79275e-06
9.75894e-06
8.33919e-06
7.06322e-06
6.0726e-06
5.47665e-06
4.97687e-06
4.51466e-06
4.62576e-06
4.54179e-06
3.9993e-06
3.15971e-06
2.38315e-06
1.80412e-06
1.40103e-06
1.10374e-06
8.58635e-07
6.55805e-07
4.9272e-07
3.6464e-07
2.65541e-07
1.93181e-07
1.37174e-07
1.12509e-07
6.58762e-08
382.665
265.91
146.153
20.6678
215.184
1258.31
2423.91
2202.2
1131.61
361.757
78.603
13.4208
2.37126
0.711779
0.589008
0.83291
1.93714
3.57534
5.38871
7.18184
8.53845
9.33228
9.5258
9.00726
7.97852
6.55795
4.97365
3.41363
2.0063
0.971589
0.346455
0.0774076
0.00744711
9.82071e-05
0.00141221
0.0011836
4.30088e-08
1.60276e-10
4.89659e-07
1.01306e-06
3.54843e-06
8.91444e-06
1.33675e-05
1.25455e-05
1.15335e-05
8.50905e-06
5.21657e-06
3.89049e-06
4.43584e-06
6.15386e-06
7.9271e-06
8.14476e-06
7.33676e-06
6.13285e-06
5.23018e-06
4.58858e-06
4.03487e-06
3.90016e-06
3.90002e-06
3.68199e-06
3.10594e-06
2.40364e-06
1.79359e-06
1.35457e-06
1.05034e-06
8.18594e-07
6.33761e-07
4.85496e-07
3.66899e-07
2.73313e-07
2.03552e-07
1.48568e-07
1.23795e-07
7.38523e-08
446.454
449.95
459.399
426.984
123.937
105.772
784.805
1546.01
1468.97
876.321
381.737
137.463
47.9634
19.8694
11.6112
9.41143
10.834
13.5339
16.3282
18.9208
20.9702
22.4445
23.2047
23.0064
21.9917
20.173
17.794
15.02
11.8653
8.6677
5.64024
3.12684
1.40505
0.457972
0.0928121
0.00778244
3.09352e-05
0.00105015
0.000856148
3.95797e-05
8.4082e-10
3.18689e-07
1.63942e-06
3.81169e-06
8.0039e-06
1.04149e-05
8.19876e-06
5.05072e-06
3.50845e-06
3.45959e-06
4.69393e-06
6.07254e-06
6.73432e-06
6.22159e-06
5.3066e-06
4.46735e-06
3.7908e-06
3.40804e-06
3.2917e-06
3.21533e-06
2.91643e-06
2.4053e-06
1.84264e-06
1.37953e-06
1.04829e-06
8.07809e-07
6.27601e-07
4.88446e-07
3.77131e-07
2.8764e-07
2.19102e-07
1.6384e-07
1.38354e-07
8.35981e-08
348.622
443.749
561.837
740.41
627.904
237.505
53.6999
376.842
837.519
905.159
664.711
391.068
208.875
112.925
67.7302
46.8981
39.2157
36.7103
35.584
35.1749
35.036
35.1163
35.1256
34.7047
33.8527
32.3943
30.5085
28.2623
25.5056
22.3461
18.6496
14.5913
10.4253
6.51241
3.44901
1.43885
0.436713
0.082445
0.0064298
2.57465e-05
0.000727166
0.000540993
7.21328e-06
1.78639e-07
1.7584e-13
4.17803e-07
2.97074e-06
4.94845e-06
4.70544e-06
3.63245e-06
3.47105e-06
3.95531e-06
4.8346e-06
5.29939e-06
5.13586e-06
4.50973e-06
3.77653e-06
3.18511e-06
2.85442e-06
2.72389e-06
2.58092e-06
2.29366e-06
1.87294e-06
1.44697e-06
1.10151e-06
8.39613e-07
6.47071e-07
5.05329e-07
3.95722e-07
3.0826e-07
2.39976e-07
1.83471e-07
1.56702e-07
9.55832e-08
120.152
214.055
375.158
621.543
804.884
689.081
338.694
65.5215
111.425
341.008
463.926
426.938
322.529
222.873
151.827
106.822
80.7211
64.9823
54.4829
47.0114
41.6647
38.0486
35.5766
33.7507
32.386
31.1396
30.0341
29.0627
28.0887
27.0787
25.7336
24.0589
21.6322
18.3394
14.3916
10.1108
6.17687
3.13383
1.23978
0.352115
0.0609306
0.00423255
5.18164e-06
1.7325e-06
3.2857e-05
7.12497e-08
9.32729e-08
6.2115e-11
3.8895e-07
1.53941e-06
2.24904e-06
2.81062e-06
3.77758e-06
4.4177e-06
4.53898e-06
4.27332e-06
3.79032e-06
3.21346e-06
2.71626e-06
2.41538e-06
2.24349e-06
2.07276e-06
1.80855e-06
1.48559e-06
1.17637e-06
9.1132e-07
7.02404e-07
5.46139e-07
4.27922e-07
3.36838e-07
2.66552e-07
2.07809e-07
1.79324e-07
1.10342e-07
6.32271
27.67
104.996
266.162
498.867
672.687
643.574
415.069
141.763
26.2747
72.0059