/*--------------------------------*- C++ -*----------------------------------*\
| =========                 |                                                 |
| \\      /  F ield         | OpenFOAM: The Open Source CFD Toolbox           |
|  \\    /   O peration     | Version:  2312                                  |
|   \\  /    A nd           | Website:  www.openfoam.com                      |
|    \\/     M anipulation  |                                                 |
\*---------------------------------------------------------------------------*/
FoamFile
{
    version     2.0;
    format      ascii;
    arch        "LSB;label=32;scalar=64";
    class       volScalarField;
    location    "50";
    object      turbulenceProperties:nuEff;
}
// * * * * * * * * * * * * * * * * * * * * * * * * * * * * * * * * * * * * * //

dimensions      [0 2 -1 0 0 0 0];

internalField   nonuniform List<scalar> 
11040
(
2.99583e-05
5.7756e-05
0.000104933
0.000174281
0.000288396
0.000534306
0.00112288
0.0015572
0.00169294
0.00174088
0.00180015
0.00186972
0.00193501
0.00198518
0.00201586
0.00202803
0.00202509
0.0020102
0.00198602
0.00195498
0.00191579
0.00187023
0.00182365
0.00177283
0.00171569
0.00165199
0.00158271
0.00151106
0.00143834
0.00136067
0.00127153
0.00116873
0.0010521
0.000943707
0.000884672
0.000845065
0.000776916
0.000421831
0.000509357
0.00053486
0.000515116
1.57834e-05
1.52542e-05
2.20453e-05
5.18962e-05
0.000119059
0.000218629
0.000418236
0.000689905
0.00098726
0.00131621
0.00166686
0.00202223
0.00235357
0.00262106
0.00280216
0.00290011
0.00293721
0.00294305
0.00294152
0.00294057
0.00293763
0.00292887
0.00291458
0.00289167
0.00287268
0.00285776
0.00284466
0.00283082
0.00280968
0.00277489
0.00272633
0.00268404
0.00267137
0.00263773
0.00243308
0.0019415
0.0016022
0.00189265
0.00275437
0.0028211
0.0030816
1.62561e-05
1.64674e-05
1.61743e-05
1.62121e-05
1.83897e-05
2.55601e-05
4.50347e-05
9.06874e-05
0.000150995
0.000214253
0.000293739
0.000411789
0.000588459
0.000838599
0.00116172
0.00154185
0.00195045
0.00235247
0.00271496
0.00301498
0.00324593
0.00341204
0.00353337
0.00362544
0.00370838
0.00378484
0.00385617
0.00392287
0.00398183
0.00402394
0.00405012
0.00409235
0.00418096
0.00422981
0.00405361
0.00364981
0.00361345
0.00439267
0.00534736
0.00557655
0.00528526
1.61395e-05
1.61631e-05
1.62479e-05
1.61124e-05
1.55171e-05
1.45499e-05
1.29114e-05
1.14818e-05
1.07884e-05
1.0547e-05
1.05244e-05
1.0728e-05
1.18728e-05
2.00421e-05
6.39631e-05
0.000157544
0.000294877
0.000497123
0.000782738
0.00115649
0.00161131
0.00209615
0.00255555
0.00297032
0.00333563
0.00365175
0.00392655
0.00417184
0.00439542
0.00459583
0.00477956
0.0049786
0.00520871
0.00536623
0.00530057
0.00514701
0.0054584
0.00640647
0.00744256
0.0079469
0.00797736
1.61277e-05
1.61364e-05
1.61461e-05
1.61648e-05
1.61389e-05
1.59713e-05
1.55115e-05
1.47004e-05
1.37852e-05
1.30374e-05
1.24632e-05
1.19015e-05
1.12735e-05
1.06958e-05
1.00583e-05
1.00032e-05
1.00078e-05
1.00953e-05
1.28792e-05
5.68255e-05
0.000184465
0.000372663
0.000630369
0.000961365
0.00136355
0.0018279
0.00233892
0.00287959
0.00342846
0.00395999
0.00446386
0.00495477
0.0054295
0.00579964
0.00598474
0.00617031
0.00678136
0.00784774
0.00890599
0.00950501
0.00998642
1.61096e-05
1.61132e-05
1.61191e-05
1.61253e-05
1.61309e-05
1.61429e-05
1.61619e-05
1.61616e-05
1.61197e-05
1.6044e-05
1.59485e-05
1.58226e-05
1.56437e-05
1.53307e-05
1.46518e-05
1.37525e-05
1.25958e-05
1.13294e-05
1.01716e-05
1.0001e-05
1.00423e-05
1.04118e-05
1.28456e-05
3.21724e-05
0.000117699
0.000262152
0.000478545
0.000798418
0.00124108
0.00181588
0.00252317
0.00334304
0.00420629
0.00499784
0.00566081
0.00634457
0.00731861
0.00853491
0.00957667
0.010059
0.0106239
1.61068e-05
1.61121e-05
1.6117e-05
1.61217e-05
1.61259e-05
1.61287e-05
1.61344e-05
1.61498e-05
1.61763e-05
1.62083e-05
1.62412e-05
1.62755e-05
1.63132e-05
1.63646e-05
1.64483e-05
1.64335e-05
1.63066e-05
1.60253e-05
1.55236e-05
1.44567e-05
1.28948e-05
1.15687e-05
1.02725e-05
1.03708e-05
1.23954e-05
1.00001e-05
1.00012e-05
1.03832e-05
5.8741e-05
0.000235813
0.000530788
0.00102357
0.00173076
0.00262877
0.00369974
0.00497227
0.00646633
0.00800691
0.00914668
0.00943861
0.00976413
1.61075e-05
1.61116e-05
1.61141e-05
1.61162e-05
1.61185e-05
1.61207e-05
1.61222e-05
1.61235e-05
1.61256e-05
1.61296e-05
1.61357e-05
1.61446e-05
1.61569e-05
1.61761e-05
1.62046e-05
1.62442e-05
1.62998e-05
1.63738e-05
1.64747e-05
1.65944e-05
1.64044e-05
1.59157e-05
1.51346e-05
1.3774e-05
1.23162e-05
1.14097e-05
1.0085e-05
1.00301e-05
1.04501e-05
2.29177e-05
1.71824e-05
4.85014e-05
0.000188072
0.000509284
0.00112557
0.00220723
0.00376441
0.00552841
0.00689216
0.00717091
0.00740085
1.61071e-05
1.61095e-05
1.61103e-05
1.61108e-05
1.61117e-05
1.6113e-05
1.61143e-05
1.61154e-05
1.61161e-05
1.61165e-05
1.61166e-05
1.61166e-05
1.61169e-05
1.61178e-05
1.612e-05
1.61246e-05
1.61337e-05
1.61501e-05
1.61772e-05
1.62351e-05
1.63332e-05
1.64323e-05
1.65992e-05
1.67861e-05
1.64891e-05
1.60689e-05
1.53066e-05
1.37741e-05
1.224e-05
1.03549e-05
1.00005e-05
1.02502e-05
1.35323e-05
6.84883e-05
1.07572e-05
0.000241389
0.00095437
0.0021713
0.00330074
0.00341229
0.0035871
1.61062e-05
1.61067e-05
1.6106e-05
1.61053e-05
1.61052e-05
1.61056e-05
1.61062e-05
1.6107e-05
1.61077e-05
1.61082e-05
1.61086e-05
1.61088e-05
1.6109e-05
1.61092e-05
1.61095e-05
1.61099e-05
1.61105e-05
1.61115e-05
1.61136e-05
1.61157e-05
1.6126e-05
1.61517e-05
1.61987e-05
1.62839e-05
1.63919e-05
1.64733e-05
1.67197e-05
1.6848e-05
1.67564e-05
1.55455e-05
1.33777e-05
1.19012e-05
1.00813e-05
1.00036e-05
1.00039e-05
1.52826e-05
1.00175e-05
0.000280247
0.000670907
0.000791502
0.000803273
1.61044e-05
1.61033e-05
1.61018e-05
1.61006e-05
1.61e-05
1.61e-05
1.61003e-05
1.61008e-05
1.61013e-05
1.61018e-05
1.61022e-05
1.61026e-05
1.61029e-05
1.61032e-05
1.61037e-05
1.61044e-05
1.61053e-05
1.61064e-05
1.61078e-05
1.61092e-05
1.61102e-05
1.61115e-05
1.61144e-05
1.61205e-05
1.61378e-05
1.6166e-05
1.62172e-05
1.63241e-05
1.64958e-05
1.67336e-05
1.68981e-05
1.66945e-05
1.53294e-05
1.36974e-05
1.03328e-05
1.00044e-05
1.00005e-05
1.59052e-05
8.04883e-05
1.27032e-05
0.000101772
1.61019e-05
1.60999e-05
1.60982e-05
1.60971e-05
1.60965e-05
1.60963e-05
1.60964e-05
1.60967e-05
1.6097e-05
1.60973e-05
1.60976e-05
1.60978e-05
1.6098e-05
1.60982e-05
1.60985e-05
1.60989e-05
1.60995e-05
1.61005e-05
1.61017e-05
1.61035e-05
1.61058e-05
1.61082e-05
1.61105e-05
1.61123e-05
1.61139e-05
1.61168e-05
1.61192e-05
1.61238e-05
1.61357e-05
1.62109e-05
1.63436e-05
1.64608e-05
1.67611e-05
1.73751e-05
1.69007e-05
1.34576e-05
1.0462e-05
1.00001e-05
1.00006e-05
1.00055e-05
1e-05
1.60992e-05
1.60971e-05
1.60956e-05
1.60949e-05
1.60945e-05
1.60944e-05
1.60944e-05
1.60944e-05
1.60946e-05
1.60947e-05
1.60948e-05
1.60949e-05
1.6095e-05
1.60951e-05
1.60952e-05
1.60953e-05
1.60956e-05
1.60961e-05
1.60969e-05
1.60979e-05
1.60995e-05
1.61015e-05
1.61039e-05
1.61064e-05
1.61087e-05
1.61113e-05
1.6115e-05
1.61161e-05
1.61112e-05
1.61166e-05
1.61412e-05
1.61441e-05
1.61302e-05
1.636e-05
1.71281e-05
1.73712e-05
1.58676e-05
1.37422e-05
1.26572e-05
1.09234e-05
1.00323e-05
1.60966e-05
1.60952e-05
1.60943e-05
1.60938e-05
1.60936e-05
1.60934e-05
1.60934e-05
1.60933e-05
1.60933e-05
1.60932e-05
1.60932e-05
1.60932e-05
1.60932e-05
1.60932e-05
1.60932e-05
1.60932e-05
1.60933e-05
1.60935e-05
1.60939e-05
1.60945e-05
1.60954e-05
1.60966e-05
1.60981e-05
1.60999e-05
1.61017e-05
1.61036e-05
1.61064e-05
1.611e-05
1.61108e-05
1.61098e-05
1.61196e-05
1.61326e-05
1.6093e-05
1.60417e-05
1.62122e-05
1.65666e-05
1.64714e-05
1.61582e-05
1.71574e-05
1.97154e-05
1.61477e-05
1.60946e-05
1.60942e-05
1.60938e-05
1.60935e-05
1.60932e-05
1.6093e-05
1.60928e-05
1.60927e-05
1.60925e-05
1.60923e-05
1.60922e-05
1.6092e-05
1.60919e-05
1.60919e-05
1.60918e-05
1.60918e-05
1.60918e-05
1.60918e-05
1.6092e-05
1.60922e-05
1.60927e-05
1.60933e-05
1.6094e-05
1.60949e-05
1.60961e-05
1.60974e-05
1.60988e-05
1.61012e-05
1.61034e-05
1.61033e-05
1.61051e-05
1.61169e-05
1.61207e-05
1.60877e-05
1.60612e-05
1.61773e-05
1.63009e-05
1.60007e-05
1.57479e-05
1.73136e-05
1.9115e-05
1.60932e-05
1.60939e-05
1.60937e-05
1.60934e-05
1.6093e-05
1.60927e-05
1.60923e-05
1.6092e-05
1.60917e-05
1.60913e-05
1.6091e-05
1.60908e-05
1.60906e-05
1.60904e-05
1.60903e-05
1.60903e-05
1.60903e-05
1.60903e-05
1.60905e-05
1.60907e-05
1.60911e-05
1.60915e-05
1.60918e-05
1.60921e-05
1.60927e-05
1.60933e-05
1.6094e-05
1.6095e-05
1.60967e-05
1.60979e-05
1.60975e-05
1.61002e-05
1.61089e-05
1.61069e-05
1.60833e-05
1.60948e-05
1.61708e-05
1.61643e-05
1.58971e-05
1.58118e-05
1.63787e-05
1.60925e-05
1.60938e-05
1.60938e-05
1.60933e-05
1.60928e-05
1.60922e-05
1.60916e-05
1.60911e-05
1.60906e-05
1.60901e-05
1.60896e-05
1.60891e-05
1.60887e-05
1.60883e-05
1.6088e-05
1.60877e-05
1.60875e-05
1.60874e-05
1.60873e-05
1.60873e-05
1.60876e-05
1.60878e-05
1.6088e-05
1.60881e-05
1.60883e-05
1.60885e-05
1.60889e-05
1.60893e-05
1.609e-05
1.6091e-05
1.60915e-05
1.60917e-05
1.60936e-05
1.60972e-05
1.60964e-05
1.60869e-05
1.60879e-05
1.61371e-05
1.61508e-05
1.59862e-05
1.58794e-05
1.6092e-05
1.60934e-05
1.60934e-05
1.60929e-05
1.60924e-05
1.60918e-05
1.60912e-05
1.60906e-05
1.60899e-05
1.60893e-05
1.60886e-05
1.6088e-05
1.60874e-05
1.60869e-05
1.60864e-05
1.6086e-05
1.60856e-05
1.60853e-05
1.6085e-05
1.60848e-05
1.60846e-05
1.60845e-05
1.60844e-05
1.60843e-05
1.60842e-05
1.6084e-05
1.60839e-05
1.60839e-05
1.60839e-05
1.60841e-05
1.60845e-05
1.60847e-05
1.6085e-05
1.60863e-05
1.60884e-05
1.60875e-05
1.6084e-05
1.60881e-05
1.61085e-05
1.61111e-05
1.6071e-05
1.60916e-05
1.6093e-05
1.60929e-05
1.60923e-05
1.60917e-05
1.60911e-05
1.60904e-05
1.60898e-05
1.60892e-05
1.60885e-05
1.60879e-05
1.60873e-05
1.60867e-05
1.60862e-05
1.60857e-05
1.60852e-05
1.60848e-05
1.60845e-05
1.60842e-05
1.6084e-05
1.60838e-05
1.60837e-05
1.60835e-05
1.60833e-05
1.60832e-05
1.60829e-05
1.60827e-05
1.60826e-05
1.60827e-05
1.60829e-05
1.60833e-05
1.60837e-05
1.60842e-05
1.60847e-05
1.60856e-05
1.60868e-05
1.60873e-05
1.6086e-05
1.60876e-05
1.60964e-05
1.61001e-05
1.60914e-05
1.60927e-05
1.60924e-05
1.60917e-05
1.60911e-05
1.60904e-05
1.60899e-05
1.60893e-05
1.60887e-05
1.60881e-05
1.60875e-05
1.60869e-05
1.60864e-05
1.60858e-05
1.60853e-05
1.60848e-05
1.60844e-05
1.6084e-05
1.60836e-05
1.60834e-05
1.60831e-05
1.60829e-05
1.60827e-05
1.60824e-05
1.60822e-05
1.60821e-05
1.60821e-05
1.60821e-05
1.60823e-05
1.60825e-05
1.60828e-05
1.60833e-05
1.60837e-05
1.60843e-05
1.60849e-05
1.60856e-05
1.60865e-05
1.60871e-05
1.60873e-05
1.60883e-05
1.60906e-05
1.60913e-05
1.60922e-05
1.60918e-05
1.60911e-05
1.60905e-05
1.60899e-05
1.60894e-05
1.60888e-05
1.60883e-05
1.60878e-05
1.60873e-05
1.60868e-05
1.60863e-05
1.60858e-05
1.60852e-05
1.60847e-05
1.60843e-05
1.60838e-05
1.60834e-05
1.60831e-05
1.60828e-05
1.60825e-05
1.60822e-05
1.6082e-05
1.60819e-05
1.60819e-05
1.6082e-05
1.60821e-05
1.60823e-05
1.60825e-05
1.60828e-05
1.60831e-05
1.60835e-05
1.60839e-05
1.60844e-05
1.60849e-05
1.60854e-05
1.60861e-05
1.60866e-05
1.60872e-05
1.60878e-05
1.60911e-05
1.60917e-05
1.60912e-05
1.60905e-05
1.60899e-05
1.60894e-05
1.60889e-05
1.60885e-05
1.60881e-05
1.60877e-05
1.60873e-05
1.60868e-05
1.60864e-05
1.60859e-05
1.60854e-05
1.6085e-05
1.60845e-05
1.60841e-05
1.60836e-05
1.60832e-05
1.60828e-05
1.60825e-05
1.60822e-05
1.6082e-05
1.60819e-05
1.60819e-05
1.60819e-05
1.60819e-05
1.60821e-05
1.60822e-05
1.60824e-05
1.60827e-05
1.60829e-05
1.60832e-05
1.60836e-05
1.60839e-05
1.60843e-05
1.60847e-05
1.60852e-05
1.60857e-05
1.60861e-05
1.60908e-05
1.60912e-05
1.60906e-05
1.609e-05
1.60894e-05
1.60889e-05
1.60885e-05
1.60882e-05
1.60879e-05
1.60876e-05
1.60873e-05
1.6087e-05
1.60866e-05
1.60862e-05
1.60858e-05
1.60854e-05
1.6085e-05
1.60845e-05
1.60841e-05
1.60837e-05
1.60833e-05
1.60829e-05
1.60826e-05
1.60824e-05
1.60822e-05
1.60821e-05
1.6082e-05
1.60819e-05
1.60819e-05
1.6082e-05
1.60821e-05
1.60822e-05
1.60823e-05
1.60825e-05
1.60826e-05
1.60829e-05
1.60831e-05
1.60835e-05
1.60838e-05
1.60843e-05
1.60847e-05
1.60904e-05
1.60907e-05
1.60901e-05
1.60895e-05
1.60889e-05
1.60885e-05
1.60882e-05
1.60879e-05
1.60877e-05
1.60875e-05
1.60873e-05
1.6087e-05
1.60868e-05
1.60865e-05
1.60862e-05
1.60859e-05
1.60855e-05
1.60851e-05
1.60847e-05
1.60843e-05
1.60839e-05
1.60835e-05
1.60832e-05
1.60829e-05
1.60826e-05
1.60824e-05
1.60822e-05
1.60821e-05
1.6082e-05
1.60819e-05
1.60819e-05
1.60819e-05
1.60819e-05
1.60819e-05
1.6082e-05
1.60822e-05
1.60824e-05
1.60827e-05
1.60831e-05
1.60836e-05
1.60842e-05
1.609e-05
1.60902e-05
1.60897e-05
1.60892e-05
1.60887e-05
1.60883e-05
1.6088e-05
1.60877e-05
1.60875e-05
1.60874e-05
1.60872e-05
1.60871e-05
1.6087e-05
1.60868e-05
1.60866e-05
1.60864e-05
1.60861e-05
1.60858e-05
1.60854e-05
1.6085e-05
1.60847e-05
1.60843e-05
1.60839e-05
1.60835e-05
1.60832e-05
1.60829e-05
1.60826e-05
1.60824e-05
1.60822e-05
1.6082e-05
1.60818e-05
1.60817e-05
1.60816e-05
1.60816e-05
1.60817e-05
1.60818e-05
1.6082e-05
1.60823e-05
1.60828e-05
1.60834e-05
1.60841e-05
1.60895e-05
1.60896e-05
1.60893e-05
1.60889e-05
1.60886e-05
1.60882e-05
1.60879e-05
1.60877e-05
1.60875e-05
1.60874e-05
1.60873e-05
1.60872e-05
1.60871e-05
1.6087e-05
1.60869e-05
1.60868e-05
1.60866e-05
1.60864e-05
1.60861e-05
1.60858e-05
1.60855e-05
1.60851e-05
1.60847e-05
1.60843e-05
1.6084e-05
1.60836e-05
1.60832e-05
1.60829e-05
1.60826e-05
1.60823e-05
1.6082e-05
1.60818e-05
1.60816e-05
1.60816e-05
1.60816e-05
1.60817e-05
1.60819e-05
1.60823e-05
1.60828e-05
1.60834e-05
1.60841e-05
1.6089e-05
1.60891e-05
1.60889e-05
1.60887e-05
1.60885e-05
1.60883e-05
1.60881e-05
1.60879e-05
1.60877e-05
1.60875e-05
1.60874e-05
1.60873e-05
1.60873e-05
1.60872e-05
1.60872e-05
1.60871e-05
1.6087e-05
1.60869e-05
1.60867e-05
1.60865e-05
1.60862e-05
1.60859e-05
1.60856e-05
1.60852e-05
1.60848e-05
1.60844e-05
1.6084e-05
1.60836e-05
1.60832e-05
1.60828e-05
1.60824e-05
1.60821e-05
1.60819e-05
1.60817e-05
1.60817e-05
1.60818e-05
1.60821e-05
1.60824e-05
1.60829e-05
1.60835e-05
1.60841e-05
1.60884e-05
1.60884e-05
1.60883e-05
1.60883e-05
1.60883e-05
1.60883e-05
1.60882e-05
1.60881e-05
1.6088e-05
1.60879e-05
1.60877e-05
1.60876e-05
1.60876e-05
1.60875e-05
1.60875e-05
1.60874e-05
1.60874e-05
1.60873e-05
1.60872e-05
1.60871e-05
1.60869e-05
1.60867e-05
1.60864e-05
1.60861e-05
1.60857e-05
1.60853e-05
1.60848e-05
1.60844e-05
1.60839e-05
1.60835e-05
1.6083e-05
1.60826e-05
1.60823e-05
1.60821e-05
1.60821e-05
1.60822e-05
1.60824e-05
1.60827e-05
1.60831e-05
1.60836e-05
1.60842e-05
1.60878e-05
1.60878e-05
1.60877e-05
1.60878e-05
1.6088e-05
1.60882e-05
1.60883e-05
1.60883e-05
1.60883e-05
1.60882e-05
1.60881e-05
1.6088e-05
1.60879e-05
1.60879e-05
1.60878e-05
1.60877e-05
1.60877e-05
1.60877e-05
1.60876e-05
1.60875e-05
1.60874e-05
1.60873e-05
1.60871e-05
1.60868e-05
1.60865e-05
1.60861e-05
1.60857e-05
1.60852e-05
1.60847e-05
1.60842e-05
1.60838e-05
1.60833e-05
1.60829e-05
1.60827e-05
1.60826e-05
1.60827e-05
1.60828e-05
1.6083e-05
1.60833e-05
1.60837e-05
1.60842e-05
1.60873e-05
1.60871e-05
1.6087e-05
1.60872e-05
1.60875e-05
1.60878e-05
1.60881e-05
1.60883e-05
1.60884e-05
1.60885e-05
1.60885e-05
1.60884e-05
1.60883e-05
1.60883e-05
1.60882e-05
1.60881e-05
1.60881e-05
1.6088e-05
1.6088e-05
1.60879e-05
1.60878e-05
1.60877e-05
1.60876e-05
1.60874e-05
1.60872e-05
1.60869e-05
1.60865e-05
1.6086e-05
1.60856e-05
1.6085e-05
1.60846e-05
1.6084e-05
1.60837e-05
1.60834e-05
1.60833e-05
1.60832e-05
1.60833e-05
1.60834e-05
1.60836e-05
1.60839e-05
1.60843e-05
1.60867e-05
1.60864e-05
1.60863e-05
1.60865e-05
1.60868e-05
1.60872e-05
1.60876e-05
1.6088e-05
1.60882e-05
1.60884e-05
1.60886e-05
1.60886e-05
1.60886e-05
1.60886e-05
1.60885e-05
1.60885e-05
1.60884e-05
1.60883e-05
1.60883e-05
1.60882e-05
1.60882e-05
1.60881e-05
1.6088e-05
1.60878e-05
1.60877e-05
1.60874e-05
1.60871e-05
1.60867e-05
1.60863e-05
1.60858e-05
1.60853e-05
1.60848e-05
1.60844e-05
1.60841e-05
1.60839e-05
1.60838e-05
1.60838e-05
1.60838e-05
1.60839e-05
1.60841e-05
1.60844e-05
1.60861e-05
1.60858e-05
1.60857e-05
1.60858e-05
1.60861e-05
1.60865e-05
1.60869e-05
1.60874e-05
1.60877e-05
1.60881e-05
1.60883e-05
1.60885e-05
1.60887e-05
1.60887e-05
1.60887e-05
1.60887e-05
1.60887e-05
1.60886e-05
1.60886e-05
1.60885e-05
1.60884e-05
1.60883e-05
1.60883e-05
1.60881e-05
1.6088e-05
1.60878e-05
1.60876e-05
1.60872e-05
1.60869e-05
1.60864e-05
1.6086e-05
1.60856e-05
1.60851e-05
1.60848e-05
1.60845e-05
1.60844e-05
1.60843e-05
1.60842e-05
1.60843e-05
1.60843e-05
1.60845e-05
1.60855e-05
1.60852e-05
1.60851e-05
1.60851e-05
1.60854e-05
1.60857e-05
1.60861e-05
1.60866e-05
1.6087e-05
1.60874e-05
1.60878e-05
1.60881e-05
1.60884e-05
1.60886e-05
1.60887e-05
1.60887e-05
1.60888e-05
1.60888e-05
1.60887e-05
1.60887e-05
1.60886e-05
1.60885e-05
1.60884e-05
1.60883e-05
1.60882e-05
1.6088e-05
1.60878e-05
1.60876e-05
1.60873e-05
1.60869e-05
1.60865e-05
1.60861e-05
1.60857e-05
1.60853e-05
1.60851e-05
1.60848e-05
1.60847e-05
1.60846e-05
1.60845e-05
1.60845e-05
1.60846e-05
1.60848e-05
1.60846e-05
1.60845e-05
1.60845e-05
1.60847e-05
1.6085e-05
1.60853e-05
1.60857e-05
1.60861e-05
1.60866e-05
1.6087e-05
1.60874e-05
1.60878e-05
1.60881e-05
1.60883e-05
1.60885e-05
1.60886e-05
1.60887e-05
1.60887e-05
1.60887e-05
1.60886e-05
1.60886e-05
1.60885e-05
1.60884e-05
1.60882e-05
1.60881e-05
1.60879e-05
1.60877e-05
1.60875e-05
1.60872e-05
1.60869e-05
1.60865e-05
1.60861e-05
1.60857e-05
1.60854e-05
1.60852e-05
1.6085e-05
1.60849e-05
1.60848e-05
1.60847e-05
1.60847e-05
1.60841e-05
1.6084e-05
1.60839e-05
1.6084e-05
1.60841e-05
1.60843e-05
1.60846e-05
1.60849e-05
1.60852e-05
1.60856e-05
1.6086e-05
1.60865e-05
1.60869e-05
1.60873e-05
1.60876e-05
1.60879e-05
1.60881e-05
1.60883e-05
1.60884e-05
1.60884e-05
1.60884e-05
1.60884e-05
1.60884e-05
1.60883e-05
1.60882e-05
1.6088e-05
1.60879e-05
1.60877e-05
1.60875e-05
1.60873e-05
1.6087e-05
1.60867e-05
1.60863e-05
1.6086e-05
1.60857e-05
1.60854e-05
1.60852e-05
1.6085e-05
1.60849e-05
1.60847e-05
1.60847e-05
1.60833e-05
1.60834e-05
1.60833e-05
1.60834e-05
1.60835e-05
1.60836e-05
1.60838e-05
1.60841e-05
1.60843e-05
1.60847e-05
1.6085e-05
1.60854e-05
1.60858e-05
1.60863e-05
1.60866e-05
1.6087e-05
1.60873e-05
1.60876e-05
1.60878e-05
1.60879e-05
1.6088e-05
1.6088e-05
1.6088e-05
1.6088e-05
1.60879e-05
1.60878e-05
1.60877e-05
1.60876e-05
1.60874e-05
1.60872e-05
1.6087e-05
1.60867e-05
1.60865e-05
1.60861e-05
1.60858e-05
1.60855e-05
1.60853e-05
1.6085e-05
1.60849e-05
1.60847e-05
1.60846e-05
1.60825e-05
1.60826e-05
1.60827e-05
1.60827e-05
1.60828e-05
1.6083e-05
1.60831e-05
1.60833e-05
1.60835e-05
1.60837e-05
1.6084e-05
1.60844e-05
1.60847e-05
1.60851e-05
1.60855e-05
1.60859e-05
1.60863e-05
1.60866e-05
1.60869e-05
1.60871e-05
1.60873e-05
1.60874e-05
1.60874e-05
1.60875e-05
1.60874e-05
1.60874e-05
1.60873e-05
1.60872e-05
1.60871e-05
1.60869e-05
1.60867e-05
1.60865e-05
1.60863e-05
1.6086e-05
1.60857e-05
1.60854e-05
1.60852e-05
1.60849e-05
1.60847e-05
1.60845e-05
1.60844e-05
1.60816e-05
1.60818e-05
1.60819e-05
1.6082e-05
1.60821e-05
1.60822e-05
1.60823e-05
1.60824e-05
1.60826e-05
1.60828e-05
1.6083e-05
1.60833e-05
1.60836e-05
1.6084e-05
1.60843e-05
1.60847e-05
1.6085e-05
1.60854e-05
1.60857e-05
1.6086e-05
1.60862e-05
1.60864e-05
1.60866e-05
1.60867e-05
1.60867e-05
1.60867e-05
1.60867e-05
1.60866e-05
1.60865e-05
1.60864e-05
1.60863e-05
1.60861e-05
1.60859e-05
1.60857e-05
1.60855e-05
1.60852e-05
1.60849e-05
1.60847e-05
1.60845e-05
1.60843e-05
1.60841e-05
1.60806e-05
1.60808e-05
1.60809e-05
1.6081e-05
1.60811e-05
1.60812e-05
1.60813e-05
1.60815e-05
1.60816e-05
1.60818e-05
1.6082e-05
1.60822e-05
1.60824e-05
1.60827e-05
1.6083e-05
1.60834e-05
1.60837e-05
1.60841e-05
1.60844e-05
1.60847e-05
1.6085e-05
1.60852e-05
1.60854e-05
1.60856e-05
1.60857e-05
1.60858e-05
1.60858e-05
1.60858e-05
1.60857e-05
1.60856e-05
1.60855e-05
1.60854e-05
1.60853e-05
1.60851e-05
1.60849e-05
1.60847e-05
1.60845e-05
1.60843e-05
1.60841e-05
1.60839e-05
1.60837e-05
1.60796e-05
1.60797e-05
1.60798e-05
1.60799e-05
1.608e-05
1.60801e-05
1.60802e-05
1.60803e-05
1.60805e-05
1.60806e-05
1.60808e-05
1.6081e-05
1.60812e-05
1.60815e-05
1.60817e-05
1.6082e-05
1.60823e-05
1.60826e-05
1.60829e-05
1.60832e-05
1.60835e-05
1.60838e-05
1.6084e-05
1.60842e-05
1.60844e-05
1.60845e-05
1.60846e-05
1.60846e-05
1.60846e-05
1.60846e-05
1.60846e-05
1.60845e-05
1.60844e-05
1.60843e-05
1.60841e-05
1.6084e-05
1.60839e-05
1.60837e-05
1.60835e-05
1.60834e-05
1.60832e-05
1.60784e-05
1.60785e-05
1.60786e-05
1.60786e-05
1.60787e-05
1.60788e-05
1.60789e-05
1.60791e-05
1.60792e-05
1.60794e-05
1.60795e-05
1.60797e-05
1.60799e-05
1.60801e-05
1.60803e-05
1.60805e-05
1.60808e-05
1.6081e-05
1.60813e-05
1.60816e-05
1.60819e-05
1.60821e-05
1.60824e-05
1.60826e-05
1.60828e-05
1.6083e-05
1.60831e-05
1.60832e-05
1.60832e-05
1.60833e-05
1.60833e-05
1.60832e-05
1.60832e-05
1.60831e-05
1.6083e-05
1.60829e-05
1.60828e-05
1.60827e-05
1.60826e-05
1.60825e-05
1.60824e-05
1.60773e-05
1.60773e-05
1.60773e-05
1.60773e-05
1.60773e-05
1.60774e-05
1.60775e-05
1.60776e-05
1.60778e-05
1.60779e-05
1.6078e-05
1.60782e-05
1.60784e-05
1.60785e-05
1.60787e-05
1.60789e-05
1.60791e-05
1.60793e-05
1.60796e-05
1.60798e-05
1.60801e-05
1.60803e-05
1.60805e-05
1.60807e-05
1.60809e-05
1.60811e-05
1.60813e-05
1.60814e-05
1.60815e-05
1.60816e-05
1.60816e-05
1.60816e-05
1.60816e-05
1.60816e-05
1.60816e-05
1.60815e-05
1.60815e-05
1.60814e-05
1.60814e-05
1.60813e-05
1.60813e-05
1.6076e-05
1.6076e-05
1.6076e-05
1.60759e-05
1.60759e-05
1.60759e-05
1.6076e-05
1.60761e-05
1.60762e-05
1.60763e-05
1.60764e-05
1.60766e-05
1.60767e-05
1.60768e-05
1.6077e-05
1.60771e-05
1.60773e-05
1.60775e-05
1.60776e-05
1.60778e-05
1.6078e-05
1.60782e-05
1.60784e-05
1.60786e-05
1.60788e-05
1.6079e-05
1.60792e-05
1.60793e-05
1.60794e-05
1.60795e-05
1.60796e-05
1.60796e-05
1.60797e-05
1.60797e-05
1.60797e-05
1.60797e-05
1.60797e-05
1.60796e-05
1.60796e-05
1.60796e-05
1.60795e-05
1.60747e-05
1.60747e-05
1.60746e-05
1.60745e-05
1.60744e-05
1.60744e-05
1.60744e-05
1.60745e-05
1.60745e-05
1.60746e-05
1.60747e-05
1.60748e-05
1.60748e-05
1.60749e-05
1.6075e-05
1.60751e-05
1.60752e-05
1.60754e-05
1.60755e-05
1.60756e-05
1.60757e-05
1.60759e-05
1.6076e-05
1.60762e-05
1.60763e-05
1.60765e-05
1.60766e-05
1.60768e-05
1.60769e-05
1.6077e-05
1.60771e-05
1.60772e-05
1.60773e-05
1.60773e-05
1.60774e-05
1.60775e-05
1.60775e-05
1.60775e-05
1.60776e-05
1.60776e-05
1.60776e-05
1.60733e-05
1.60732e-05
1.60731e-05
1.6073e-05
1.60729e-05
1.60729e-05
1.60729e-05
1.60729e-05
1.60729e-05
1.60729e-05
1.60729e-05
1.60729e-05
1.60729e-05
1.60729e-05
1.6073e-05
1.6073e-05
1.6073e-05
1.6073e-05
1.60731e-05
1.60731e-05
1.60732e-05
1.60732e-05
1.60733e-05
1.60734e-05
1.60735e-05
1.60737e-05
1.60738e-05
1.60739e-05
1.6074e-05
1.60741e-05
1.60742e-05
1.60743e-05
1.60744e-05
1.60744e-05
1.60745e-05
1.60745e-05
1.60745e-05
1.60745e-05
1.60745e-05
1.60746e-05
1.60746e-05
1.60718e-05
1.60717e-05
1.60716e-05
1.60715e-05
1.60714e-05
1.60714e-05
1.60713e-05
1.60713e-05
1.60712e-05
1.60712e-05
1.60711e-05
1.60711e-05
1.6071e-05
1.60709e-05
1.60708e-05
1.60708e-05
1.60707e-05
1.60706e-05
1.60706e-05
1.60705e-05
1.60705e-05
1.60704e-05
1.60704e-05
1.60704e-05
1.60704e-05
1.60704e-05
1.60705e-05
1.60705e-05
1.60706e-05
1.60706e-05
1.60707e-05
1.60708e-05
1.60709e-05
1.6071e-05
1.60711e-05
1.60712e-05
1.60713e-05
1.60714e-05
1.60715e-05
1.60717e-05
1.60718e-05
1.60702e-05
1.60702e-05
1.60701e-05
1.607e-05
1.607e-05
1.60699e-05
1.60698e-05
1.60698e-05
1.60697e-05
1.60696e-05
1.60695e-05
1.60694e-05
1.60692e-05
1.60691e-05
1.60689e-05
1.60689e-05
1.60688e-05
1.60689e-05
1.60689e-05
1.6069e-05
1.60691e-05
1.60692e-05
1.60693e-05
1.60694e-05
1.60695e-05
1.60696e-05
1.60698e-05
1.60699e-05
1.607e-05
1.60702e-05
1.60703e-05
1.60704e-05
1.60705e-05
1.60706e-05
1.60707e-05
1.60708e-05
1.60709e-05
1.6071e-05
1.60711e-05
1.60712e-05
1.60712e-05
1.60685e-05
1.60685e-05
1.60685e-05
1.60685e-05
1.60684e-05
1.60684e-05
1.60684e-05
1.60684e-05
1.60683e-05
1.60683e-05
1.60682e-05
1.60681e-05
1.60679e-05
1.60679e-05
1.6068e-05
1.60682e-05
1.60685e-05
1.60689e-05
1.60693e-05
1.60698e-05
1.60703e-05
1.60709e-05
1.60715e-05
1.60721e-05
1.60728e-05
1.60734e-05
1.6074e-05
1.60746e-05
1.60751e-05
1.60756e-05
1.6076e-05
1.60763e-05
1.60766e-05
1.60768e-05
1.6077e-05
1.60771e-05
1.60772e-05
1.60773e-05
1.60773e-05
1.60773e-05
1.60772e-05
0.0082736
0.0213746
0.0295289
0.0288972
0.0221391
0.0127044
0.00524223
0.00169836
0.00051475
0.000168341
5.18379e-05
2.43114e-05
2.13736e-05
2.06842e-05
1.92849e-05
1.77557e-05
1.29031e-05
1.01821e-05
1.01376e-05
1.00625e-05
1.02214e-05
1.00047e-05
1.00047e-05
1.01475e-05
1.15949e-05
1.52027e-05
2.01539e-05
2.36428e-05
2.23002e-05
1.95415e-05
1.70652e-05
1.58145e-05
1.57159e-05
1.61616e-05
1.65996e-05
1.67754e-05
1.67473e-05
1.66645e-05
1.66112e-05
1.65959e-05
1.65944e-05
1.65892e-05
1.65767e-05
1.65601e-05
1.65441e-05
1.6535e-05
1.65253e-05
1.65147e-05
1.65053e-05
1.64992e-05
1.64962e-05
1.64954e-05
1.64965e-05
1.64994e-05
1.6504e-05
1.65097e-05
1.65156e-05
1.6528e-05
1.65312e-05
1.65324e-05
1.65319e-05
1.65288e-05
1.65226e-05
1.6513e-05
1.65e-05
1.64838e-05
1.6465e-05
1.64439e-05
1.64209e-05
1.63967e-05
1.63719e-05
1.63465e-05
1.63237e-05
1.62903e-05
0.0109887
0.0252059
0.0343484
0.0354772
0.0304286
0.0209098
0.0106742
0.00400979
0.00123175
0.000377472
0.000131824
5.15896e-05
2.83341e-05
1.85228e-05
1.46489e-05
1.09259e-05
1.0012e-05
1e-05
1.19129e-05
2.47325e-05
3.22402e-05
2.77676e-05
1.56316e-05
1e-05
1.00061e-05
1.00218e-05
1e-05
1.04313e-05
1.32517e-05
1.83894e-05
2.10043e-05
2.10497e-05
1.90504e-05
1.71231e-05
1.62147e-05
1.61588e-05
1.64337e-05
1.66687e-05
1.67495e-05
1.6725e-05
1.66714e-05
1.6632e-05
1.66123e-05
1.66024e-05
1.65907e-05
1.65908e-05
1.65863e-05
1.65766e-05
1.65638e-05
1.65543e-05
1.65504e-05
1.65509e-05
1.65537e-05
1.65579e-05
1.6563e-05
1.65685e-05
1.65733e-05
1.65745e-05
1.65712e-05
1.65667e-05
1.65616e-05
1.65548e-05
1.65452e-05
1.65321e-05
1.65156e-05
1.64959e-05
1.64737e-05
1.64495e-05
1.64238e-05
1.63973e-05
1.63707e-05
1.63442e-05
1.63208e-05
1.62881e-05
0.0125895
0.0278507
0.0383262
0.0412473
0.0383242
0.0303526
0.0192011
0.00916138
0.00332327
0.001051
0.000346602
0.000131081
3.74828e-05
1.34796e-05
1.05711e-05
1.00502e-05
1.00913e-05
9.37048e-05
0.00011207
0.000236966
0.000268215
0.0002584
0.000176182
5.27684e-05
0.000208642
0.000134445
1.0053e-05
1.1769e-05
1.00143e-05
1.00839e-05
1.14157e-05
1.33844e-05
1.68613e-05
1.96854e-05
2.01651e-05
1.86691e-05
1.70159e-05
1.63152e-05
1.62851e-05
1.65133e-05
1.67053e-05
1.67651e-05
1.67303e-05
1.66727e-05
1.66268e-05
1.66163e-05
1.66271e-05
1.6638e-05
1.66353e-05
1.66236e-05
1.66132e-05
1.66096e-05
1.66116e-05
1.6616e-05
1.6621e-05
1.66256e-05
1.66297e-05
1.66239e-05
1.66151e-05
1.66046e-05
1.65934e-05
1.65814e-05
1.65675e-05
1.65507e-05
1.65306e-05
1.65074e-05
1.64818e-05
1.64546e-05
1.64264e-05
1.63978e-05
1.63698e-05
1.63426e-05
1.63188e-05
1.62871e-05
0.0135898
0.0293745
0.0410491
0.045742
0.0449844
0.0395362
0.0295951
0.0178857
0.00835387
0.0030622
0.000955207
0.000301035
8.48856e-05
1.75538e-05
1.00068e-05
2.06861e-05
2.72751e-05
0.000516552
0.00106224
0.00146757
0.00168091
0.00168962
0.00155719
0.00130951
0.000981663
0.000672254
0.000383708
9.75414e-05
0.000243035
0.000114261
2.12676e-05
1.00128e-05
1.00314e-05
1.00935e-05
1.28696e-05
1.73383e-05
2.04942e-05
2.02713e-05
1.82672e-05
1.68389e-05
1.6312e-05
1.63599e-05
1.65925e-05
1.67596e-05
1.67901e-05
1.67408e-05
1.66925e-05
1.66783e-05
1.66824e-05
1.66844e-05
1.66788e-05
1.66721e-05
1.66693e-05
1.66705e-05
1.66736e-05
1.66761e-05
1.66783e-05
1.66729e-05
1.66619e-05
1.66466e-05
1.66288e-05
1.66099e-05
1.65903e-05
1.65689e-05
1.6545e-05
1.65184e-05
1.64896e-05
1.64596e-05
1.64291e-05
1.63989e-05
1.63698e-05
1.63421e-05
1.63182e-05
1.62873e-05
0.0157765
0.030492
0.042455
0.0488069
0.0499578
0.047205
0.0400172
0.0291218
0.0175563
0.00860602
0.00337951
0.00102242
0.000145947
0.000266007
1.00002e-05
0.00021685
0.0010231
0.00227179
0.00316581
0.00378113
0.00417459
0.00432182
0.00426312
0.00401395
0.00360158
0.00306945
0.00245682
0.0018003
0.00113289
0.000580359
0.000196354
0.000319004
0.000154953
1.00374e-05
1.00013e-05
1.0035e-05
1.01258e-05
1.2416e-05
1.69992e-05
2.04095e-05
1.96946e-05
1.79369e-05
1.67373e-05
1.63133e-05
1.63914e-05
1.66081e-05
1.67581e-05
1.68096e-05
1.68023e-05
1.67759e-05
1.67501e-05
1.67334e-05
1.67264e-05
1.6726e-05
1.67278e-05
1.67282e-05
1.67264e-05
1.67206e-05
1.67091e-05
1.66914e-05
1.66682e-05
1.66421e-05
1.66152e-05
1.65878e-05
1.65593e-05
1.65292e-05
1.64975e-05
1.6465e-05
1.64325e-05
1.64009e-05
1.6371e-05
1.6343e-05
1.6319e-05
1.62888e-05
0.016401
0.0301213
0.0433814
0.0505982
0.0531605
0.0526222
0.0486843
0.0404964
0.0295754
0.018818
0.0104094
0.00510706
0.00234874
0.00128912
0.00130322
0.00168853
0.00322097
0.00481906
0.00606364
0.00691233
0.00745831
0.00772972
0.0077735
0.00760797
0.00725275
0.00674463
0.00608692
0.00529636
0.00439041
0.00339999
0.00242988
0.001478
0.000759967
0.000265716
0.000347684
0.00015653
1.00095e-05
1.00001e-05
1.01913e-05
1.0636e-05
1.28636e-05
1.72094e-05
1.95452e-05
1.90197e-05
1.75906e-05
1.65897e-05
1.62734e-05
1.63857e-05
1.6634e-05
1.68256e-05
1.68971e-05
1.68796e-05
1.68322e-05
1.67954e-05
1.67793e-05
1.67756e-05
1.67734e-05
1.67677e-05
1.67561e-05
1.67372e-05
1.67109e-05
1.66789e-05
1.66443e-05
1.66095e-05
1.65751e-05
1.65407e-05
1.65061e-05
1.64713e-05
1.64372e-05
1.64044e-05
1.63738e-05
1.63455e-05
1.63215e-05
1.62918e-05
0.0143312
0.0264738
0.0406846
0.0504973
0.0547268
0.0557946
0.0543672
0.0497327
0.0414936
0.0314776
0.0219232
0.0144285
0.00942945
0.00669025
0.00567873
0.00558191
0.0068497
0.00837083
0.00968584
0.0106363
0.0112539
0.0115812
0.0116774
0.0115716
0.0112866
0.0108566
0.0102852
0.00957552
0.00872389
0.00772258
0.00661285
0.00534604
0.00402592
0.00275746
0.00160469
0.000770316
0.000194339
0.000339261
0.000150592
1.60773e-05
1.00006e-05
1.01943e-05
1.13559e-05
1.42539e-05
1.86263e-05
2.02764e-05
1.9195e-05
1.75827e-05
1.66124e-05
1.63435e-05
1.64913e-05
1.67475e-05
1.69154e-05
1.69538e-05
1.69166e-05
1.68656e-05
1.6829e-05
1.68083e-05
1.67942e-05
1.67776e-05
1.67529e-05
1.67192e-05
1.66792e-05