/*--------------------------------*- C++ -*----------------------------------*\
| =========                 |                                                 |
| \\      /  F ield         | OpenFOAM: The Open Source CFD Toolbox           |
|  \\    /   O peration     | Version:  2312                                  |
|   \\  /    A nd           | Website:  www.openfoam.com                      |
|    \\/     M anipulation  |                                                 |
\*---------------------------------------------------------------------------*/
FoamFile
{
    version     2.0;
    format      ascii;
    arch        "LSB;label=32;scalar=64";
    class       volScalarField;
    location    "50";
    object      turbulenceProperties:L;
}
// * * * * * * * * * * * * * * * * * * * * * * * * * * * * * * * * * * * * * //

dimensions      [0 1 0 0 0 0 0];

internalField   nonuniform List<scalar> 
11040
(
0.000241751
0.000204091
0.000218354
0.000266421
0.000352885
0.000510294
0.000783866
0.00095528
0.00100594
0.00101954
0.00103577
0.00105524
0.001074
0.00108957
0.00110109
0.00110908
0.00111494
0.00112046
0.00112706
0.00113559
0.00114614
0.00115885
0.00117328
0.00118848
0.0012059
0.00122579
0.00124822
0.00127291
0.00129867
0.00132611
0.00135809
0.00140314
0.00145884
0.00148697
0.00146662
0.00147275
0.00168938
0.00199663
0.00305195
0.00266617
0.00180427
0.000518325
0.000479578
0.000428878
0.000421439
0.000448363
0.00050973
0.000657503
0.000834997
0.00102434
0.00123936
0.0014728
0.00171662
0.00195854
0.00218238
0.0023802
0.00255399
0.00271294
0.00286493
0.00301406
0.00316254
0.00330234
0.00342338
0.00352808
0.00361434
0.00368589
0.00374984
0.00381959
0.0039023
0.00399809
0.00408831
0.00416798
0.00425211
0.00437112
0.0045697
0.00490934
0.00531062
0.00565152
0.00580116
0.00551724
0.00612574
0.00470831
0.000679073
0.000820549
0.000842749
0.000870732
0.00100182
0.00155712
0.00131482
0.000917046
0.000891337
0.000934361
0.00102061
0.00116053
0.00135484
0.00159754
0.00187419
0.0021694
0.00246827
0.0027603
0.0030399
0.00330327
0.00355231
0.00378297
0.00399622
0.00419958
0.00440103
0.00460417
0.00480774
0.00501538
0.00522277
0.00542171
0.00560861
0.00579114
0.00600254
0.00633373
0.0068832
0.00749099
0.00758528
0.00760273
0.008397
0.0103884
0.00925699
0.000817148
0.000839762
0.000880785
0.000955262
0.00106076
0.00119812
0.00146574
0.00199658
0.00281533
0.00376813
0.00468075
0.00553277
0.00589873
0.0026806
0.00168918
0.00169432
0.00191189
0.00219969
0.00252926
0.00288548
0.00325711
0.00361016
0.00392842
0.00421599
0.00447777
0.00472934
0.004981
0.00524364
0.0055189
0.00579795
0.00607767
0.00636924
0.00670825
0.00716582
0.0077353
0.00815896
0.00836587
0.00896249
0.0103345
0.0129839
0.0129574
0.000987216
0.00100112
0.00105273
0.00114124
0.00125212
0.00135523
0.00144295
0.00154959
0.00170677
0.00191648
0.00217184
0.00249676
0.00297912
0.00379509
0.00965926
0.0300741
0.0233773
0.0106002
0.00421334
0.00348165
0.0031446
0.00323271
0.00348094
0.00377584
0.00408518
0.00440236
0.00472664
0.00505891
0.00539416
0.00572237
0.00604955
0.0064022
0.00681699
0.00732062
0.00785693
0.00831229
0.00881783
0.00970972
0.0111443
0.0133839
0.0140864
0.00120131
0.00119307
0.00120377
0.00124645
0.00131989
0.00141411
0.00151698
0.00162615
0.00175304
0.00191214
0.00210662
0.00231951
0.00251929
0.00269006
0.00286943
0.00308357
0.00345385
0.00429852
0.00892432
0.0629394
0.0157367
0.00732827
0.00437068
0.00340245
0.00365229
0.00375237
0.00398449
0.00433529
0.00473803
0.00515346
0.00557664
0.00602161
0.00649737
0.00700061
0.00752
0.00809817
0.00886326
0.00989846
0.0111744
0.0125997
0.0133943
0.00144752
0.00142577
0.00141026
0.00142451
0.00147225
0.00154731
0.00164061
0.0017463
0.00186673
0.00200939
0.002178
0.00236686
0.00256058
0.0027408
0.00289498
0.00303333
0.00316322
0.00330886
0.00349735
0.00380639
0.00435199
0.00524524
0.00955504
0.00863553
0.00479883
0.188619
0.0918571
0.0111744
0.00317438
0.00373372
0.00438672
0.00500242
0.00557934
0.00614149
0.00675284
0.00751818
0.00849179
0.00960457
0.0106989
0.0114571
0.0119219
0.00173545
0.00170563
0.00166929
0.00165413
0.00167032
0.00171533
0.00178223
0.00186592
0.0019672
0.00209182
0.00224491
0.00242553
0.00262354
0.00282327
0.00301253
0.0031837
0.00333414
0.00347325
0.00361651
0.00376822
0.00394312
0.00411213
0.00429065
0.00465419
0.00539273
0.00644968
0.0181105
0.0278251
0.0108345
0.00429377
0.0049388
0.00346226
0.0034841
0.00426783
0.00517269
0.00632442
0.00764075
0.00892753
0.00992883
0.010205
0.0102871
0.00206937
0.00203437
0.001984
0.0019441
0.00192993
0.00194425
0.00198409
0.00204561
0.00212808
0.00223339
0.00236374
0.00251824
0.00268988
0.00286735
0.00304138
0.0032059
0.00335639
0.00349362
0.00362775
0.00376901
0.00391332
0.00404193
0.00412119
0.00415624
0.00424262
0.00437564
0.00462818
0.00520344
0.0062642
0.0121936
0.149579
0.0148836
0.00649756
0.00406818
0.00706569
0.00353328
0.00587788
0.00781117
0.00881501
0.00834556
0.00799011
0.00246018
0.00242168
0.00236231
0.00230328
0.00226193
0.00224568
0.00225525
0.00228867
0.00234444
0.00242311
0.00252559
0.00265169
0.00279804
0.00295747
0.00312292
0.0032887
0.00344835
0.00359606
0.00373266
0.00386928
0.00401593
0.00416503
0.0042973
0.00439384
0.00444975
0.00449112
0.00451259
0.00455808
0.00463269
0.00495258
0.00581882
0.00708063
0.0221181
0.0779401
0.0875922
0.00704651
0.0419018
0.00543415
0.00649744
0.00572144
0.00487686
0.00291916
0.00287737
0.00281197
0.00273868
0.00267435
0.00262936
0.00260794
0.00261087
0.00263788
0.00268892
0.00276396
0.00286265
0.00298277
0.00311909
0.00326597
0.00341793
0.00356913
0.00371325
0.00384706
0.0039764
0.00411349
0.00426045
0.00440739
0.00453869
0.00463402
0.00468917
0.00471979
0.00474275
0.00476249
0.00479153
0.00487404
0.00502777
0.00539097
0.00610806
0.0147659
0.0869966
0.21615
0.00673711
0.00454596
0.00532768
0.00288178
0.00346041
0.00341525
0.00334557
0.0032615
0.00317854
0.00310816
0.00305708
0.0030286
0.00302414
0.00304434
0.00308848
0.00315617
0.0032459
0.00335425
0.00347697
0.00360964
0.003748
0.00388686
0.0040219
0.00415342
0.00428719
0.00442624
0.00456818
0.00470444
0.00481925
0.00489652
0.00494273
0.00497969
0.00502671
0.00508814
0.00518605
0.00533736
0.00544243
0.00542802
0.00562078
0.00697833
0.0139308
0.278843
0.158107
0.0654742
0.871169
0.00410041
0.00405165
0.00397816
0.0038852
0.00378656
0.00369387
0.00361499
0.00355506
0.00351732
0.00350357
0.00351407
0.00354838
0.0036056
0.00368321
0.00377768
0.00388576
0.00400406
0.00412918
0.00425771
0.0043875
0.00451921
0.00465212
0.00478687
0.00492191
0.00504736
0.00515332
0.00523874
0.00530937
0.00538153
0.00546746
0.0055837
0.00575681
0.00597441
0.00609915
0.00601187
0.00594068
0.0061585
0.00669364
0.00705977
0.00984561
0.0333396
0.00485962
0.00480657
0.00472921
0.00462811
0.00451555
0.00440297
0.00429859
0.00420858
0.00413756
0.00408877
0.00406342
0.00406183
0.00408359
0.0041272
0.00419029
0.00427049
0.0043657
0.00447388
0.00459215
0.00471809
0.00484955
0.00498222
0.0051159
0.00525288
0.00538964
0.00552369
0.00564627
0.00575378
0.00585197
0.00594972
0.00605594
0.00618816
0.00636973
0.00656155
0.00662581
0.00651962
0.00640132
0.00626148
0.00577572
0.00520887
0.00572842
0.0057624
0.00570433
0.0056224
0.00551319
0.00538743
0.00525636
0.00512828
0.00500984
0.00490652
0.00482273
0.00476088
0.00472216
0.00470713
0.00471536
0.00474592
0.00479697
0.00486684
0.00495354
0.00505482
0.00516818
0.0052922
0.00542056
0.00555013
0.00568461
0.00582284
0.00596265
0.00609736
0.00622378
0.00634042
0.00644921
0.00655278
0.00665859
0.0067802
0.00692302
0.0070398
0.0070435
0.00695017
0.00690339
0.00680665
0.00624057
0.00582725
0.0068372
0.00677342
0.00668592
0.00656848
0.00642993
0.00628111
0.00613046
0.00598492
0.00585056
0.00573263
0.00563466
0.00555879
0.00550647
0.0054782
0.00547357
0.00549169
0.00553046
0.00558817
0.00566305
0.00575279
0.00585733
0.00597154
0.0060906
0.00621623
0.00634782
0.00648352
0.00662015
0.00675581
0.00688315
0.00700082
0.00710909
0.00721088
0.00731256
0.0074248
0.00754465
0.00763392
0.00766094
0.00766287
0.00772205
0.0077025
0.00746772
0.00810787
0.00803866
0.0079449
0.00781937
0.00766847
0.00750236
0.00732979
0.00715806
0.00699367
0.00684239
0.00670848
0.00659467
0.00650309
0.00643493
0.00639054
0.00636968
0.00637197
0.00639619
0.0064413
0.00650523
0.00658888
0.0066884
0.00679795
0.00691843
0.00704798
0.00718458
0.00732728
0.00746785
0.00760363
0.00773281
0.00785646
0.00797696
0.00810075
0.00823416
0.00838315
0.00854291
0.00869442
0.00880415
0.00890403
0.00904605
0.00915218
0.00955252
0.00947809
0.00937722
0.00924299
0.00907924
0.0088955
0.00870107
0.00850393
0.00831094
0.00812826
0.00796062
0.00781126
0.00768286
0.00757746
0.00749648
0.0074406
0.00741006
0.00740489
0.0074252
0.00746961
0.00753897
0.0076296
0.00773657
0.00785801
0.00799182
0.00813491
0.00828559
0.00843999
0.00859718
0.0087575
0.00892189
0.00909191
0.00927135
0.00946515
0.00967757
0.00991013
0.0101554
0.0103949
0.0106205
0.0108098
0.0110085
0.011122
0.0110414
0.0109325
0.0107888
0.0106116
0.0104099
0.0101938
0.00997215
0.00975254
0.00954173
0.00934497
0.00916606
0.00900817
0.00887392
0.00876533
0.00868361
0.00862948
0.00860303
0.00860442
0.0086327
0.0086918
0.00877807
0.00888298
0.00900629
0.00914459
0.0092946
0.0094595
0.00963747
0.00982693
0.0100286
0.0102421
0.0104683
0.0107079
0.0109655
0.0112446
0.0115489
0.0118727
0.0122077
0.0125649
0.0128697
0.0131937
0.0127919
0.0127056
0.0125888
0.0124367
0.0122471
0.0120283
0.0117914
0.0115463
0.0113012
0.0110635
0.0108387
0.0106309
0.0104437
0.0102799
0.0101416
0.0100308
0.00994864
0.00989619
0.00987447
0.00988332
0.00992893
0.010007
0.0101092
0.010233
0.0103742
0.0105345
0.0107123
0.0109096
0.0111236
0.0113574
0.0116074
0.011874
0.0121564
0.0124581
0.0127821
0.0131342
0.0135119
0.0139073
0.0143479
0.0147583
0.0152208
0.0145742
0.0144831
0.0143593
0.0141996
0.0139982
0.0137627
0.0135054
0.0132372
0.0129672
0.0127031
0.0124511
0.0122156
0.0120002
0.0118081
0.011642
0.0115039
0.0113953
0.0113176
0.0112718
0.0112568
0.0112792
0.0113412
0.011431
0.0115486
0.0116911
0.0118571
0.0120456
0.0122604
0.0124951
0.0127426
0.0130113
0.0133005
0.0136089
0.0139399
0.0142992
0.0146925
0.0151238
0.0155891
0.0161175
0.0166428
0.0172708
0.0164783
0.016383
0.0162524
0.0160854
0.0158726
0.0156209
0.0153439
0.0150538
0.0147607
0.0144729
0.0141972
0.0139383
0.0137003
0.0134865
0.0133001
0.0131428
0.0130172
0.0129242
0.0128662
0.0128422
0.0128588
0.0129152
0.0130032
0.0131224
0.0132711
0.0134495
0.0136553
0.0138835
0.0141353
0.01441
0.0147081
0.0150297
0.0153788
0.015761
0.0161823
0.0166475
0.0171601
0.0177221
0.0183617
0.0189951
0.0197811
0.0185159
0.0184165
0.0182784
0.0181042
0.0178798
0.0176118
0.017315
0.0170033
0.0166873
0.0163763
0.0160778
0.0157968
0.0155378
0.0153043
0.0150998
0.0149262
0.0147862
0.0146814
0.0146142
0.0145845
0.0146
0.0146633
0.0147647
0.0149037
0.0150789
0.0152849
0.0155198
0.0157795
0.0160684
0.0163864
0.0167308
0.0171084
0.0175184
0.0179629
0.0184455
0.0189685
0.0195271
0.0201219
0.0207819
0.0213826
0.0221698
0.0206979
0.0205932
0.0204476
0.0202656
0.0200291
0.019744
0.0194268
0.0190929
0.0187538
0.0184196
0.0180984
0.0177957
0.0175163
0.0172641
0.0170424
0.0168538
0.0167006
0.0165846
0.0165086
0.0164719
0.016486
0.0165516
0.0166596
0.0168081
0.0169921
0.0172077
0.0174556
0.0177341
0.0180448
0.0183967
0.0187712
0.0191637
0.0195844
0.0200302
0.0205021
0.0210028
0.021525
0.0220668
0.0226576
0.0231826
0.023818
0.0230358
0.0229258
0.0227713
0.0225806
0.0223308
0.0220275
0.021689
0.0213321
0.0209694
0.0206119
0.0202679
0.0199439
0.0196444
0.0193743
0.0191363
0.0189338
0.0187685
0.0186433
0.0185603
0.0185204
0.0185342
0.0186021
0.0187135
0.0188635
0.0190481
0.0192685
0.0195232
0.0198149
0.0201348
0.0204938
0.0208742
0.0212575
0.0216599
0.0220834
0.0225291
0.0229974
0.0234807
0.0239759
0.0244985
0.0250035
0.0253982
0.0255422
0.0254263
0.0252615
0.0250602
0.0247954
0.0244722
0.0241108
0.0237296
0.0233424
0.0229609
0.0225939
0.0222486
0.0219297
0.0216424
0.0213895
0.0211743
0.0209987
0.0208656
0.0207772
0.0207343
0.0207472
0.0208175
0.0209323
0.0210872
0.0212815
0.0215145
0.0217826
0.0220858
0.0224138
0.0227619
0.0231468
0.0235444
0.0239327
0.0243512
0.0247894
0.0252379
0.0256891
0.0261408
0.0265886
0.0270613
0.0272524
0.0282315
0.028107
0.0279304
0.027717
0.0274351
0.0270897
0.026703
0.0262954
0.0258818
0.0254748
0.025084
0.0247168
0.0243786
0.0240743
0.0238072
0.0235804
0.023396
0.0232568
0.0231645
0.02312
0.0231327
0.0232057
0.0233231
0.0234832
0.0236825
0.0239163
0.0241832
0.0244781
0.0247965
0.0251356
0.0255217
0.025919
0.0262999
0.0267049
0.0271166
0.0275205
0.0279109
0.0282901
0.0286368
0.029031
0.0290333
0.0311162
0.0309841
0.0307936
0.0305653
0.0302636
0.0298925
0.0294775
0.0290403
0.028598
0.0281634
0.0277473
0.0273571
0.0269989
0.0266773
0.0263963
0.0261581
0.0259654
0.0258199
0.025724
0.0256778
0.0256924
0.0257686
0.0258887
0.0260502
0.0262444
0.026469
0.0267207
0.0269963
0.027301
0.0276268
0.028001
0.0283732
0.028732
0.0290928
0.0294462
0.0297831
0.0301002
0.0304027
0.0306517
0.0309763
0.030788
0.0342163
0.0340733
0.0338676
0.0336212
0.0332956
0.0328948
0.032447
0.0319763
0.0315018
0.0310365
0.0305927
0.0301773
0.0297976
0.0294574
0.0291617
0.0289118
0.0287104
0.0285584
0.0284576
0.0284083
0.0284198
0.0284915
0.0286062
0.0287607
0.0289517
0.0291725
0.0294216
0.0296932
0.0299863
0.030284
0.0306052
0.0309391
0.0312551
0.0315318
0.0318165
0.0320939
0.0323534
0.0326004
0.0327777
0.0330706
0.0327186
0.0375476
0.0373949
0.0371708
0.0369026
0.0365481
0.0361124
0.0356265
0.0351173
0.0346054
0.0341055
0.0336304
0.0331873
0.0327832
0.0324225
0.0321097
0.0318463
0.0316349
0.0314762
0.0313716
0.0313206
0.0313324
0.0314003
0.0315101
0.0316586
0.0318407
0.0320526
0.0322845
0.0325282
0.0327807
0.0330336
0.033299
0.033569
0.0338091
0.0340403
0.034282
0.0345159
0.034731
0.0349381
0.0350608
0.0353392
0.034842
0.0411321
0.0409687
0.0407243
0.0404295
0.04004
0.0395634
0.0390326
0.0384787
0.0379232
0.037384
0.0368727
0.0363989
0.0359674
0.035584
0.0352514
0.0349728
0.0347493
0.0345826
0.0344735
0.0344222
0.0344376
0.0345101
0.0346205
0.0347607
0.0349255
0.035107
0.0353025
0.0355042
0.0357061
0.0359122
0.0361238
0.036334
0.0365015
0.0366963
0.0368835
0.0370612
0.0372254
0.0373931
0.0374669
0.0377383
0.0371094
0.044993
0.0448187
0.0445499
0.044223
0.043791
0.0432658
0.0426827
0.0420767
0.0414707
0.0408853
0.0403324
0.0398231
0.0393606
0.0389514
0.0385965
0.0383002
0.0380617
0.0378842
0.0377664
0.0377086
0.0377197
0.0377844
0.0378848
0.0380128
0.0381604
0.0383225
0.0384922
0.0386703
0.0388423
0.0390113
0.0391506
0.0393169
0.0394024
0.0394796
0.0396044
0.0397232
0.0398377
0.0399687
0.04
0.0402756
0.0395303
0.0491576
0.0489704
0.0486734
0.0483045
0.0478211
0.047238
0.0465947
0.0459284
0.0452645
0.0446249
0.0440234
0.0434709
0.0429719
0.0425314
0.0421501
0.0418302
0.0415716
0.0413764
0.0412431
0.0411752
0.0411708
0.0412242
0.0413086
0.0414227
0.0415564
0.0416998
0.0418457
0.0419868
0.0421208
0.0422413
0.0423369
0.0424435
0.0424551
0.0424509
0.0425486
0.0426271
0.042694
0.0427796
0.0427585
0.0430358
0.0421608
0.0536587
0.0534563
0.0531221
0.0526988
0.0521524
0.0514979
0.0507853
0.0500496
0.0493215
0.0486189
0.0479615
0.0473566
0.046814
0.0463339
0.0459201
0.0455697
0.0452839
0.0450618
0.0449028
0.044814
0.0447928
0.0448279
0.0448974
0.0449922
0.0451036
0.0452201
0.0453327
0.0454395
0.0455288
0.0456063
0.0456631
0.0457371
0.0456931
0.0456446
0.0457304
0.0457736
0.0457941
0.0458292
0.0457464
0.0460098
0.0449624
0.0585357
0.0583128
0.0579291
0.0574361
0.0568056
0.0560665
0.0552704
0.0544566
0.0536544
0.0528831
0.0521613
0.0514979
0.0509017
0.0503744
0.0499194
0.0495326
0.0492135
0.0489591
0.0487679
0.0486434
0.048585
0.0485844
0.0486188
0.0486885
0.048777
0.0488735
0.0489665
0.0490438
0.0491153
0.0491686
0.0492039
0.0492349
0.0491773
0.049093
0.0491332
0.0491304
0.049108
0.0491029
0.048979
0.0492498
0.0480088
0.0638318
0.063583
0.0631341
0.0625474
0.0618143
0.0609691
0.0600726
0.0591665
0.0582792
0.0574306
0.0566374
0.0559086
0.0552516
0.0546692
0.0541639
0.0537324
0.0533715
0.0530772
0.0528433
0.0526746
0.0525683
0.0525188
0.0525165
0.0525531
0.0526223
0.0527074
0.0527966
0.0528846
0.052976
0.053041
0.0530736
0.0530406
0.053025
0.0528286
0.052672
0.0526869
0.0526338
0.0525878
0.0524298
0.0527225
0.0513081
0.0695969
0.0693128
0.0687788
0.0680766
0.0672169
0.0662446
0.065228
0.0642091
0.063219
0.0622784
0.0614027
0.0606004
0.0598766
0.0592336
0.0586706
0.0581861
0.0577752
0.0574316
0.0571516
0.0569269
0.0567709
0.0566692
0.0566123
0.0566082
0.0566387
0.0566971
0.0567852
0.0569035
0.0570088
0.0570799
0.0571014
0.0570627
0.0570126
0.0567848
0.0565931
0.0565734
0.0564679
0.0563694
0.0561654
0.056435
0.0548648
0.0758851
0.0755538
0.0749111
0.0740707
0.0730613
0.0719464
0.0707851
0.0696323
0.0685148
0.06746
0.0664796
0.0655887
0.064785
0.0640749
0.0634498
0.0629101
0.0624461
0.0620561
0.0617296
0.0614659
0.0612561
0.0610879
0.0609603
0.0608695
0.0608282
0.0608383
0.0609033
0.0609849
0.0610806
0.0611523
0.0611773
0.0611693
0.0611592
0.0609884
0.0608245
0.0607932
0.0606589
0.0605161
0.0602641
0.0604895
0.0587575
0.082755
0.0823608
0.081587
0.0805799
0.0794072
0.078125
0.0768054
0.0754996
0.0742356
0.0730389
0.0719262
0.0709144
0.070007
0.0692079
0.0685106
0.067909
0.0673918
0.0669511
0.0665773
0.0662608
0.0660093
0.065796
0.0656192
0.0654825
0.0653857
0.0653393
0.06532
0.0653245
0.065343
0.0653875
0.0654637
0.0655215
0.0655547
0.0654952
0.0654301
0.0654048
0.0652873
0.0651548
0.06491
0.0650879
0.0633572
0.0902632
0.0897879
0.0888583
0.0876721
0.086313
0.0848537
0.0833595
0.0818847
0.0804594
0.0791036
0.0778352
0.0766703
0.0756208
0.0746934
0.0738895
0.0732038
0.0726236
0.072131
0.071711
0.0713499
0.0710244
0.0707419
0.0704745
0.0702488
0.0700723
0.069906
0.0697514
0.0696252
0.0695378
0.0694851
0.0694749
0.0694896
0.0695048
0.0694636
0.0694611
0.0694935
0.069448
0.0693869
0.0692356
0.0693937
0.0678325
0.098459
0.0978742
0.0967691
0.0953954
0.0938678
0.0922357
0.0905608
0.0889027
0.0872906
0.0857494
0.084303
0.0829638
0.0817443
0.0806503
0.079691
0.0788668
0.0781781
0.0776146
0.0771632
0.0768054
0.0765245
0.0762864
0.0760947
0.0759347
0.0757734
0.0756172
0.0754752
0.0753356
0.0752277
0.0751796
0.075131
0.0750575
0.0749719
0.074915
0.074853
0.074788
0.074732
0.0746782
0.0745823
0.0746514
0.0735496
0.107411
0.106664
0.105335
0.10377
0.102102
0.100347
0.0985573
0.0967505
0.094958
0.0932026
0.0915232
0.089947
0.0885038
0.0872012
0.0860451
0.0850266
0.084137
0.0833628
0.0826884
0.082111
0.0815982
0.0811814
0.0808132
0.0804701
0.080148
0.0798449
0.07956
0.0793355
0.0791599
0.0790014
0.0788822
0.0788213
0.0787642
0.078687
0.0786952
0.0787415
0.0787698
0.0788238
0.0788995
0.0791013
0.0783722
0.117226
0.116284
0.114676
0.112858
0.111
0.10913
0.107273
0.105434
0.103609
0.101782
0.0999551
0.098145
0.096392
0.0947472
0.0932653
0.0919898
0.0909453
0.0901403
0.0895631
0.0891736
0.0889777
0.0889051
0.0888954
0.0889103
0.0889233
0.0889131
0.0888937
0.0888364
0.0887275
0.0885959
0.0884274
0.0882446
0.0880826
0.0878742
0.087763
0.0876784
0.0874917
0.0873593
0.0873825
0.0872798
0.0870941
0.128031
0.127
0.125218
0.123189
0.121058
0.118872
0.116705
0.11463
0.112691
0.11089
0.109198
0.107557
0.105903
0.104184
0.102374
0.100485
0.0985598
0.0966611
0.0948567
0.0932099
0.0917485
0.0905142
0.0894783
0.0886597
0.0880179
0.0875264
0.0871498
0.0868691
0.08667
0.0865334
0.0864871
0.0865197
0.0866417
0.0868395
0.0871441
0.0875142
0.0879192
0.0883947
0.0890188
0.0895337
0.0897045
0.139717
0.13875
0.137141
0.13539
0.133509
0.131352
0.128893
0.126187
0.123369
0.120603
0.118064
0.11589
0.114167
0.112911
0.112091
0.111628
0.111421
0.111372
0.111393
0.11141
0.111458
0.111516
0.111561
0.111555
0.111488
0.111332
0.11107
0.110705
0.110272
0.109765
0.109242
0.108687
0.108126
0.107497
0.107009
0.106477
0.10574
0.105037
0.104688
0.103485
0.104697
0.151791
0.150497
0.148771
0.147404
0.146417
0.145556
0.144611
0.143403
0.141737
0.139413
0.136298
0.13237
0.127785
0.122817
0.117793
0.112996
0.108621
0.104768
0.101466
0.0987108
0.0964052
0.0944929
0.0929443
0.0917268
0.0907733
0.0900357
0.0894804
0.0890856
0.0888623
0.0887857
0.0888653
0.0891159
0.0895641
0.0901596
0.0908632
0.0917626
0.0927706
0.0938115
0.0950605
0.0959666
0.0981483
0.163837
0.161721
0.158788
0.156175
0.154295
0.153235
0.153034
0.153622
0.154783
0.156146
0.157241
0.157597
0.156903
0.155136
0.15257
0.149605
0.146643
0.143935
0.141641
0.139703
0.138181
0.13704
0.136097
0.135101
0.134036
0.132868
0.131886
0.130769
0.129318
0.127888
0.126568
0.125256
0.1237
0.122468
0.121145
0.11935
0.118291
0.1181
0.11825
0.121332
0.116157
0.176345
0.175873
0.172241
0.163427
0.150673
0.137305
0.125582
0.116106
0.108706
0.103017
0.0986955
0.095467
0.0931178
0.0914802
0.0904232
0.0898378
0.0896306
0.0897218
0.0900393
0.090527
0.0911235
0.0915733
0.092017
0.0924244
0.0927915
0.0931781
0.0935882
0.0941845
0.0950311
0.0960485
0.0971719
0.0982775
0.0995039
0.101088
0.102686
0.104201
0.106054
0.108319
0.111078
0.112054
0.120999
0.00497225
0.0101957
0.0130603
0.0133758
0.0131387
0.0131001
0.0133646
0.0112949
0.00627027
0.00384989
0.00293915
0.0033902
0.00359395
0.00382141
0.0040887
0.00444489
0.00578603
0.0162065
0.0197964
0.0303762
0.0222268
0.110891
0.134154
0.042616
0.0201511
0.0144188
0.0115101
0.0112043
0.0110415
0.0120976
0.0115858
0.0140154
0.0112142
0.0116257
0.01135
0.0121577
0.0129968
0.0124101
0.0135006
0.0138959
0.0142651
0.0146909
0.0153136
0.0161471
0.0169175
0.0165454
0.0163272
0.0171114
0.0182325
0.0189639
0.0194666
0.01982
0.0202697
0.0207162
0.021198
0.0217133
0.0223338
0.0217527
0.023226
0.0247017
0.025961
0.027176
0.0285431
0.030175
0.0321152
0.0344157
0.0371364
0.0403677
0.044195
0.0487737
0.0541491
0.0609493
0.0653146
0.0779093
0.00818148
0.0128399
0.0153722
0.0151511
0.014416
0.013987
0.0137031
0.0130953
0.00979957
0.00604995
0.00391067
0.00346986
0.0037298
0.00444523
0.00546116
0.0094751
0.0495889
1.54154
0.00951796
0.00678915
0.00796397
0.00843899
0.0114503
4.29582
0.140359
0.094425
1.93941
0.0293414
0.0164205
0.0134109
0.0111543
0.0127916
0.0113034
0.0121146
0.0122732
0.0133505
0.0144341
0.0136487
0.0143654
0.0147059
0.0149094
0.0151512
0.0155297
0.0163449
0.0172901
0.0159269
0.015787
0.0158209
0.0164502
0.0171114
0.0175843
0.017857
0.0181496
0.0184804
0.01886
0.0192927
0.0197889
0.020742
0.0231618
0.0248936
0.0263745
0.0277337
0.0291724
0.030851
0.0328217
0.0351648
0.0379225
0.0411621
0.0449583
0.0494626
0.0546562
0.0611007
0.0652069
0.0768542
0.0136486
0.01802
0.0195327
0.018216
0.0165594
0.0156436
0.0151802
0.0148665
0.0139811
0.0108983
0.00706904
0.00484087
0.00428209
0.00668037
0.0132064
0.0345151
0.0306152
0.00733781
0.00872034
0.0130425
0.0151098
0.0132288
0.0105994
0.00785601
0.0116435
0.00992152
0.051477
0.0165235
0.099596
0.0538419
0.019941
0.0162729
0.0139281
0.0125575
0.0121659
0.013116
0.0151738
0.015716
0.0158663
0.0162623
0.016307
0.0162342
0.0163344
0.0169552
0.0177416
0.0181333
0.0175201
0.0166952
0.016785
0.0174418
0.0180754
0.0185254
0.0187681
0.0190414
0.0193488
0.0197441
0.0200505
0.0223828
0.0235069
0.0250377
0.0267346
0.0283383
0.0299138
0.0316355
0.0336093
0.0359585
0.0387083
0.0418953
0.0455773
0.0498883
0.0547415
0.0606345
0.0643386
0.0748204
0.0195113
0.0290361
0.0283177
0.0240062
0.0203084
0.0181698
0.0171731
0.0166449
0.0160956
0.0148654
0.0115422
0.0075251
0.00495855
0.00581761
0.0686259
0.00594813
0.0060525
0.0133088
0.018868
0.0218686
0.0239827
0.0254137
0.0263116
0.0286338
0.0321169
0.0378493
0.0234535
0.0106869
0.0134193
0.00966828
0.00968533
0.0993556
0.0825221
0.0582227
0.0186508
0.0148346
0.0152961
0.0156924
0.0160029
0.0171845
0.0178648
0.0178041
0.0177142
0.0181218
0.0183918
0.0205765
0.0213047
0.0198973
0.0190691
0.0193006
0.0200861
0.021022
0.021595
0.0220441
0.0223896
0.0228367
0.0231939
0.0233781
0.0239295
0.0251605
0.0269038
0.028765
0.0305787
0.0323969
0.0343684
0.0366835
0.0393797
0.0424729
0.0460025
0.0500725
0.0545607
0.0598994
0.0632249
0.0727787
0.0189364
0.0417297
0.0666433
0.0384452
0.027488
0.0223494
0.0199849
0.0188375
0.0180402
0.0172244
0.0156825
0.0121704
0.00595989
0.00822214
0.275781
0.00693675
0.0142206
0.0197203
0.0220063
0.0230311
0.0237628
0.024192
0.0243925
0.0245774
0.0245855
0.0245567
0.024413
0.0240855
0.0236472
0.0220803
0.0158635
0.0171434
0.0120611
0.0683702
0.261657
0.0849506
0.0618872
0.0249448
0.018686
0.0174
0.0175542
0.0179642
0.0185908
0.0195364
0.01955
0.0213138
0.0235159
0.0229969
0.0212669
0.0203137
0.0203296
0.0211435
0.0220393
0.0228878
0.0234867
0.0240553
0.0246486
0.0244988
0.0246104
0.0254042
0.0269438
0.0289101
0.030991
0.0330108
0.035036
0.0373028
0.0398989
0.0428515
0.0461967
0.0500043
0.0541395
0.0589734
0.0619655
0.0708323
0.017419
0.0301048
0.0459699
0.0841368
0.0486072
0.0310199
0.0248381
0.0221585
0.0206745
0.0195851
0.0183937
0.0167617
0.0144136
0.0123859
0.0130933
0.0145997
0.0192293
0.0223352
0.023956
0.0246014
0.0249443
0.0250598
0.0250375
0.0249832
0.0248439
0.0247068
0.0245113
0.024257
0.0240608
0.0237987
0.0239174
0.0239143
0.0259617
0.0346795
0.0217579
0.0128754
0.124081
0.773553
0.0515385
0.0390733
0.0263243
0.0208272
0.0190214
0.0192737
0.0195566
0.0210281
0.0237438
0.0255577
0.0247504
0.022819
0.0214243
0.0212785
0.0218382
0.0228363
0.0237624
0.0245525
0.0253545
0.0255702
0.0255695
0.0259383
0.0270632
0.0288515
0.0310391
0.0332923
0.0354747
0.0377521
0.0402424
0.0430107
0.046126
0.0496454
0.0534367
0.057809
0.0605026
0.0688376
0.0151465
0.0239591
0.0329016
0.0394054
0.0570247
0.0601958
0.0357705
0.0282414
0.0249705
0.0230943
0.0216701
0.020437
0.0193225
0.0186132
0.0188221
0.0195822
0.0220472
0.024244
0.025811
0.0266885
0.0271368
0.0272602
0.0272025
0.0270753
0.0268746
0.0266717
0.0264269
0.0261298
0.0258441
0.0255092
0.0252783
0.0249696
0.0246428
0.0245339
0.0243169
0.025942
0.0369985
0.0230026
0.0136221
0.0142997
0.431193
0.0573038
0.0329912
0.025655
0.0215245
0.020326
0.0214552
0.0240399
0.0262434
0.0263159
0.0243929
0.0228894
0.0223171
0.0227662
0.0236869
0.0247245
0.0257576
0.0264505
0.02668
0.0268356
0.0274961
0.02885
0.0308337
0.0331434
0.0354941
0.037879
0.040342
0.0429466
0.0458107
0.049016
0.0524629
0.0564127
0.0588446
0.0667379
0.0122604
0.0189081
0.0267787
0.0318139
0.0374086
0.0499402
0.0726644
0.043607
0.033437
0.029126
0.0266731
0.0250617
0.0239567
0.0233674
0.0233988
0.0239105
0.0253281
0.0269278
0.0284426
0.0295775
0.0303056
0.0306326
0.0306823
0.0305748
0.0303434
0.0300736
0.0297436
0.0293502
0.0289332
0.0284641
0.028042
0.02755
0.0270721
0.0266331
0.0261311
0.0256397
0.0250132
0.024785
0.0261605
0.0345372
0.0237046
0.0138922
0.0226046
0.070997
6.70757
0.0495807
0.0273052
0.0242998
0.0247951
0.0262961
0.026411
0.0254775
0.0242116
0.0236708
0.0238727
0.0246718
0.0257925
0.0269108
0.0276537
0.0279754
0.028352
0.0291978
0.0307113
0.0327534
0.0350601
0.0375173
0.0400367
0.0425846
0.045264
0.048176
0.0512838
0.05484
0.0570418
0.0645406
0.00881523
0.0138257
0.0212151
0.0271192
0.0315965
0.0368548
0.0460778
0.0695493
0.0596985
0.042646
0.0359641
0.0325529
0.0305767
0.0295126
0.0291741
0.0294052
0.0302515
0.031532
0.032959
0.0343108
0.0354107
0.0361188
0.0364609
0.0365138
0.0363147
0.0359752
0.0355002
0.0348989
0.0342099
0.0334321
0.0326617
0.0318009
0.0309803
0.0301902
0.0294174
0.0287111
0.0279714
0.0272886
0.0266033
0.0257911
0.0251977
0.0264007
0.0363209
0.0338422
0.015016
0.0986709
0.0868334
0.938064
0.049375
0.0321682
0.0295961
0.028211
0.0260683
0.0248897
0.0246295
0.0249781
0.0257428
0.0268404
0.0280011
0.028836
0.0293693
0.029951
0.0309844
0.0325411
0.0344911
0.0367589
0.0392261
0.0417677
0.0443891
0.0471214
0.0499562
0.05316
0.0551521
0.0622663
0.00378588
0.00781729
0.0151888
0.0221934
0.0275834
0.0320702
0.0368234
0.0436307
0.0577504
0.0862991
0.0643176
0.0501573
0.0438586
0.0407157
0.0392552
0.0389067
0.0393602
0.0406315
0.0422394
0.0441702
0.0461738
0.0479102
0.0492057
0.0499697
0.0501211
0.0497771
0.0489714
0.0477666
0.0462456
0.0444738
0.0426251
0.0406067
0.0386808
0.0368513
0.035191
0.0337453
0.0324433
0.031337
0.0303227
0.0293787
0.028442
0.0275576
0.026645
0.0261918
0.0280736
0.03415
0.0623577
0.0152919
0.0823625
0.0980689
0.566333
0.0572132
0.0366821
0.0310057
0.0273289
0.0256028
0.0255548
0.0264617
0.0277237
0.0289187
0.0298578
0.0305977
0.0314756
0.0326773
0.0341945
0.0360379
0.0381689
0.0405147
0.0430583
0.0457253
0.0484344
0.0513961
0.0532281
0.0599507
0.00232741
0.00491879
0.00791739
0.0163165
0.0229622
0.0281179
0.032432
0.0366328
0.0416112
0.0490307
0.0614167
0.0814061
0.0913977
0.0792826
0.0706721
0.0671403
0.0666332
0.0691124
0.0731539
0.0796726
0.0889704
0.100716
0.114518
0.128881
0.140845
0.147713
0.146255
0.136788
0.121956
0.105528
0.0906525
0.0773009
0.0666905
0.0581326
0.0514743
0.046334
0.0423228
0.0392616
0.0368334
0.0349111
0.0333282
0.0319896
0.0308068
0.0296334
0.0286019
0.0274192
0.0267988
0.0287247
0.0325184
0.0930816
0.0157471
0.0714977
0.082573
0.895956
0.0661042
0.0385529
0.0304889
0.0278593
0.0273949
0.0281976
0.0294421
0.0305548
0.0315819
0.0327288
0.0340584
0.035588
0.0372977
0.0392086
0.041428
0.0439252
0.0465765
0.0494484
0.0512532
0.0576349
3.85101
0
0.00480248
0.00590581
0.0159044
0.0228497
0.0281534
0.0323723
0.0359651
0.0394232
0.0432045
0.0475615
0.052533
0.0579178
0.0632114
0.0679472
0.0712158
0.0725873
0.0733571
0.0727937
0.0711723
0.0691237
0.0671773
0.0655795
0.0644556
0.0637876
0.063531
0.0636477
0.0641279
0.0650438
0.0665019
0.0690896
0.0736948
0.0826318
0.102868
0.164001
0.112463
0.0751191
0.0589822
0.0500209
0.0443352
0.0404643
0.0376535
0.0354784
0.0337576
0.0321461
0.0306884
0.0294132
0.028138
0.0275058
0.0293084
0.0410919
0.0400073
0.0158194
0.0659719
0.109784
0.133681
0.0623526
0.0367348
0.0316583
0.030259
0.0302729
0.0311263
0.0323669
0.0337478
0.0352299
0.0367395
0.0382564
0.0399705
0.0420176
0.0444128
0.0471778
0.0490867
0.055273
0.157578
0.325758
3.5616
0.00383287
0.0098069
0.0118905
0.0203398
0.0264704
0.0310956
0.0347016
0.0376674
0.0402575
0.0426062
0.04475
0.0466511
0.048365
0.0494927
0.0504129
0.0511
0.0515818
0.0518174
0.051829
0.0517038
0.0515276
0.0513687
0.0512602
0.0512071