/*--------------------------------*- C++ -*----------------------------------*\
| =========                 |                                                 |
| \\      /  F ield         | OpenFOAM: The Open Source CFD Toolbox           |
|  \\    /   O peration     | Version:  2312                                  |
|   \\  /    A nd           | Website:  www.openfoam.com                      |
|    \\/     M anipulation  |                                                 |
\*---------------------------------------------------------------------------*/
FoamFile
{
    version     2.0;
    format      ascii;
    arch        "LSB;label=32;scalar=64";
    class       volSymmTensorField;
    location    "50";
    object      turbulenceProperties:R;
}
// * * * * * * * * * * * * * * * * * * * * * * * * * * * * * * * * * * * * * //

dimensions      [0 2 -2 0 0 0 0];

internalField   nonuniform List<symmTensor> 
11040
(
(0.730978 0.122019 3.37855e-21 0.573426 2.06865e-20 0.668293)
(1.87979 0.174697 -1.98127e-20 1.02341 4.47094e-19 1.53597)
(3.50176 -0.0287749 7.67182e-19 1.51532 6.4478e-19 2.64672)
(5.37545 -0.498853 1.51418e-19 2.22441 -8.49784e-19 3.94559)
(7.88142 -1.23405 -9.25508e-21 3.44452 -1.18464e-20 5.80147)
(12.6952 -2.63833 -1.37467e-19 6.07159 -3.4346e-18 9.52335)
(23.3544 -5.92748 1.16883e-18 12.4179 -2.34314e-17 18.0064)
(29.2872 -8.6474 1.03385e-17 17.3967 -3.7249e-17 23.2817)
(30.2104 -9.89092 1.3663e-17 19.7274 3.16044e-17 24.7117)
(30.3334 -10.5655 -3.31297e-18 21.1237 2.29365e-17 25.4116)
(30.8468 -11.1833 -1.21693e-18 22.4435 2.56404e-17 26.3767)
(31.5486 -11.8037 -1.60195e-17 23.7996 5.56624e-18 27.4865)
(32.1127 -12.3619 -7.50341e-18 25.0916 -8.86843e-18 28.4742)
(32.3194 -12.7814 -3.81107e-18 26.1739 -6.01967e-18 29.149)
(32.1013 -13.0235 1.62683e-18 26.9582 -1.30591e-18 29.4446)
(31.4931 -13.0862 -1.52867e-19 27.422 -2.132e-18 29.3796)
(30.555 -12.9809 2.97202e-18 27.5674 -1.74326e-18 28.992)
(29.3176 -12.7108 -1.22753e-20 27.3781 2.9033e-19 28.2924)
(27.8107 -12.2871 -1.20589e-18 26.8663 -3.29174e-19 27.3006)
(26.095 -11.7348 -2.30931e-19 26.0782 -2.77575e-19 26.0619)
(24.1692 -11.0524 3.727e-19 25.0038 -6.86975e-19 24.5649)
(22.1648 -10.2804 1.99951e-18 23.67 1.68583e-18 22.8877)
(20.287 -9.50908 1.74135e-19 22.2292 1.28437e-18 21.2107)
(18.4752 -8.73149 1.25521e-19 20.6807 7.59071e-18 19.5202)
(16.6403 -7.91814 -3.45713e-18 18.9696 -2.15699e-18 17.7494)
(14.7958 -7.08172 2.32673e-18 17.1402 -2.31325e-18 15.9215)
(12.9861 -6.24785 -3.11818e-19 15.2634 -3.40903e-18 14.0921)
(11.2878 -5.45681 3.34698e-19 13.4531 6.7516e-20 12.3498)
(9.74178 -4.73062 1.24407e-19 11.7827 -1.11882e-18 10.7413)
(8.29083 -4.04146 2.0866e-18 10.1786 1.14132e-18 9.20226)
(6.85289 -3.34969 2.17416e-19 8.52096 3.09938e-18 7.64377)
(5.39194 -2.64047 8.62227e-20 6.76588 -1.33273e-18 6.03631)
(4.00519 -1.96768 2.12977e-18 5.09456 4.0387e-18 4.51613)
(3.04098 -1.50416 -3.46179e-19 3.99397 -3.52187e-20 3.48874)
(2.69248 -1.33767 1.49055e-18 3.66407 1.38916e-18 3.13826)
(2.45608 -1.21754 -3.44824e-20 3.28816 8.52928e-19 2.83971)
(1.68523 -0.812813 -1.62961e-19 1.96263 -8.67808e-21 1.85637)
(0.438841 -0.147134 -2.59922e-22 0.292731 -7.83901e-24 0.414437)
(0.302693 0.0336477 -1.45272e-22 0.136444 -2.48139e-21 0.278836)
(0.267025 -0.129685 2.78639e-20 0.435803 2.40762e-21 0.335685)
(0.422424 -0.0468637 6.00847e-20 1.02731 -1.23577e-19 0.651802)
(0.124732 -0.0115039 2.34778e-22 0.10873 2.65995e-22 0.113189)
(0.137442 -0.0140279 2.49593e-20 0.137311 -3.22918e-20 0.129485)
(0.188252 -0.0262127 -1.41555e-19 0.188677 -2.13586e-19 0.169731)
(0.368066 -0.0746647 -3.33556e-19 0.294536 -4.49623e-20 0.284481)
(0.949446 -0.204284 8.55594e-20 0.549682 -1.94208e-19 0.680076)
(2.13043 -0.475121 -1.77107e-18 1.10301 -9.98912e-19 1.55803)
(4.56295 -1.10114 -4.06338e-18 2.37391 3.81484e-18 3.45007)
(7.63353 -1.9928 -2.60845e-18 4.12537 1.92374e-17 5.96177)
(10.2595 -2.86911 -9.89592e-19 5.79134 -1.40396e-17 8.2396)
(12.2648 -3.67061 3.15597e-18 7.28986 -1.34502e-17 10.0758)
(13.6746 -4.37549 1.11354e-18 8.61927 -2.69506e-17 11.4599)
(14.5198 -4.93751 1.91836e-17 9.72222 -1.01657e-20 12.4032)
(14.7983 -5.30394 4.11643e-18 10.5008 1.51021e-17 12.8851)
(14.4784 -5.4265 2.48025e-18 10.8436 1.35469e-17 12.8513)
(13.6326 -5.30789 -5.48728e-18 10.7318 4.22138e-19 12.333)
(12.4377 -5.00261 -2.13333e-18 10.2495 2.09635e-18 11.4612)
(11.1004 -4.58977 -2.05999e-18 9.53566 1.26176e-19 10.4101)
(9.82234 -4.15817 6.41274e-19 8.76129 2.36762e-18 9.36702)
(8.72178 -3.76871 -7.77493e-19 8.05414 8.81671e-19 8.45091)
(7.79421 -3.42979 3.52752e-19 7.43779 2.56266e-19 7.66682)
(7.02459 -3.14316 -1.76143e-18 6.9225 1.24983e-18 7.01183)
(6.40946 -2.90748 -2.33014e-18 6.49576 -4.03164e-18 6.48126)
(5.91548 -2.70918 3.38566e-18 6.11742 -2.9044e-19 6.04179)
(5.50996 -2.5392 4.62336e-18 5.76962 -8.94211e-18 5.67208)
(5.20748 -2.4084 3.53098e-18 5.48394 3.97481e-18 5.39443)
(4.96614 -2.30189 -4.16712e-18 5.24277 1.79078e-18 5.17132)
(4.72389 -2.19695 8.99561e-19 5.01922 5.15728e-18 4.94448)
(4.45033 -2.082 -2.95906e-19 4.79831 -5.33673e-20 4.68592)
(4.14269 -1.95055 -3.66119e-18 4.54804 1.23577e-18 4.38591)
(3.8484 -1.81743 -3.02844e-18 4.26494 -4.96519e-18 4.08364)
(3.58663 -1.68919 -3.80345e-18 3.94668 -5.03807e-18 3.79328)
(3.36166 -1.57516 -5.17326e-18 3.64661 -2.60676e-20 3.53828)
(3.1331 -1.47484 -4.41882e-18 3.42307 -1.11018e-17 3.3296)
(2.73415 -1.30811 5.54399e-19 3.08987 1.28163e-18 2.99402)
(2.00464 -0.961782 -2.41562e-19 2.27173 -4.58921e-18 2.22014)
(1.20462 -0.527874 -2.70845e-18 1.13724 -2.68752e-18 1.18601)
(0.868212 -0.27752 1.67003e-19 0.572926 1.79496e-20 0.675798)
(0.995606 -0.415454 1.40284e-19 0.915134 7.73433e-19 0.898092)
(1.80298 -0.913727 1.49133e-21 2.5524 7.76373e-21 2.24283)
(1.4301 -0.728706 -3.96741e-20 2.2593 5.54962e-19 1.92647)
(2.97186 -1.48308 -1.84505e-18 4.22605 7.34891e-19 4.15163)
(0.0720814 -0.00743866 -4.27262e-21 0.0628088 -1.05046e-20 0.067606)
(0.0431061 -0.00518198 -4.2538e-20 0.0481296 -4.19517e-20 0.0476579)
(0.0381099 1.33408e-05 1.98384e-20 0.047301 6.75764e-20 0.0459982)
(0.0361922 0.00221164 3.08261e-20 0.0439941 2.54697e-20 0.0429419)
(0.027736 0.00265703 -5.84894e-20 0.0340687 -3.08142e-20 0.0331986)
(0.0124539 0.00157066 -1.65246e-20 0.01563 8.1796e-20 0.0159163)
(0.0340858 -0.00595814 1.71674e-19 0.023117 1.88113e-19 0.0295906)
(0.148231 -0.0349862 1.65318e-19 0.0917342 -2.84547e-19 0.118414)
(0.334638 -0.0931639 -3.33337e-19 0.205752 3.45635e-19 0.263989)
(0.562542 -0.173057 8.8343e-20 0.359855 -2.39584e-19 0.450018)
(0.853371 -0.281973 -4.07061e-19 0.572629 7.40776e-19 0.697394)
(1.27402 -0.443283 -2.98612e-18 0.892619 -2.64419e-18 1.06452)
(1.89125 -0.683532 6.77915e-19 1.37474 -1.38905e-18 1.61308)
(2.74119 -1.02152 2.37264e-19 2.05986 -8.16771e-19 2.38186)
(3.7864 -1.45046 1.65656e-18 2.94034 1.48393e-18 3.34797)
(4.92029 -1.93512 1.72162e-18 3.95307 3.22762e-19 4.42527)
(5.99977 -2.42068 7.12614e-19 4.99436 2.55852e-19 5.48867)
(6.87428 -2.84216 3.19492e-18 5.93391 2.09548e-19 6.39745)
(7.42918 -3.14311 9.95799e-19 6.64962 -2.55438e-19 7.03607)
(7.63224 -3.29865 -7.26975e-19 7.07843 -7.20079e-19 7.35789)
(7.52323 -3.31588 2.92846e-18 7.22347 1.30871e-18 7.38194)
(7.21741 -3.23489 1.37295e-18 7.15582 1.45484e-18 7.19383)
(6.84923 -3.10884 -2.53023e-18 6.97118 -2.52233e-18 6.90927)
(6.46979 -2.96217 -5.42425e-18 6.7118 -6.33507e-18 6.58287)
(6.12683 -2.82054 -5.83627e-18 6.43386 -4.34456e-18 6.27093)
(5.8103 -2.68363 6.25722e-18 6.14351 3.70661e-19 5.97164)
(5.51349 -2.55389 -3.83864e-19 5.86666 1.15516e-19 5.68652)
(5.22031 -2.42707 1.60804e-19 5.60545 -1.28794e-18 5.40567)
(4.93867 -2.30408 4.26687e-18 5.35173 3.75356e-18 5.13205)
(4.67932 -2.18349 -3.91273e-18 5.07468 4.66022e-18 4.86248)
(4.45561 -2.06934 8.23401e-18 4.77658 1.10737e-18 4.60505)
(4.29244 -1.98367 -1.01051e-18 4.54566 7.26015e-18 4.4134)
(4.14464 -1.92603 8.39562e-19 4.4303 3.49178e-18 4.3009)
(3.76048 -1.76682 6.06529e-18 4.09407 -3.79827e-19 3.98238)
(2.98798 -1.37757 -4.74682e-18 3.10164 3.54836e-19 3.11344)
(2.25457 -0.932036 -8.53303e-20 1.95138 2.05172e-18 2.08991)
(2.18801 -0.880695 3.16765e-19 1.92219 2.47044e-20 1.90803)
(2.79776 -1.30002 2.39332e-18 3.22691 4.96686e-19 2.83691)
(2.92057 -1.4728 -2.09495e-19 4.2507 -1.90801e-20 3.60268)
(1.89377 -0.945608 3.15954e-18 3.19679 -5.16744e-19 2.56617)
(2.09936 -1.05365 2.09046e-18 3.60449 3.93139e-19 2.95616)
(0.0498104 -0.00503369 4.17107e-21 0.0432976 7.19504e-21 0.046634)
(0.0432407 -0.00560484 9.45733e-21 0.0451316 2.30093e-20 0.0439639)
(0.0367598 -0.0037815 -2.0699e-20 0.0438393 -3.0289e-20 0.0397622)
(0.0302716 -0.00152965 -2.30146e-20 0.0383538 -1.52606e-20 0.0336125)
(0.0244549 -1.17215e-05 2.9986e-20 0.03108 2.35589e-20 0.0271464)
(0.0194514 0.000639682 2.43834e-20 0.0240188 1.53763e-20 0.0213237)
(0.0136544 0.000624168 -2.62912e-21 0.0159521 -8.30665e-21 0.0146062)
(0.00817635 0.000353886 3.12232e-22 0.0090083 -4.27688e-22 0.00851385)
(0.00465216 0.000177012 -5.53256e-22 0.00492239 7.18013e-22 0.0047538)
(0.00281768 0.000100972 -2.48569e-21 0.00290987 2.16422e-22 0.0028461)
(0.0018576 6.95347e-05 2.20105e-22 0.00188575 7.5587e-22 0.00185984)
(0.0012642 5.56004e-05 2.22185e-21 0.00125258 2.90152e-21 0.00124793)
(0.00101613 3.06e-05 -6.73176e-23 0.000897091 -9.03773e-23 0.000940821)
(0.00505879 -0.000516783 3.30944e-20 0.0040181 -2.96808e-21 0.00449158)
(0.0276099 -0.00695093 -1.55544e-20 0.0200939 -3.90417e-20 0.0237296)
(0.0921755 -0.0316166 -1.99121e-19 0.0674259 -2.21981e-19 0.0796644)
(0.229724 -0.086637 -5.20118e-19 0.176921 -1.07259e-20 0.203107)
(0.485128 -0.191444 1.01454e-19 0.392514 -2.57482e-19 0.438147)
(0.901937 -0.367018 -4.30888e-19 0.760674 -2.70914e-19 0.830363)
(1.49841 -0.624531 -2.48938e-19 1.30889 1.48302e-19 1.40457)
(2.25715 -0.960543 -4.31419e-19 2.03577 -5.89437e-19 2.15363)
(3.07022 -1.33139 -1.57739e-18 2.85686 -5.23992e-20 2.97809)
(3.80711 -1.6776 -4.162e-20 3.64713 7.25752e-19 3.74313)
(4.41567 -1.97182 -4.25303e-18 4.34314 8.03513e-19 4.38915)
(4.88992 -2.20638 -1.38106e-18 4.91724 4.37158e-18 4.90244)
(5.21802 -2.37117 -1.0555e-17 5.32804 -7.33167e-19 5.26616)
(5.41331 -2.4717 1.14417e-18 5.5787 8.50563e-19 5.49524)
(5.4936 -2.51774 -5.18599e-18 5.69618 1.18417e-18 5.60907)
(5.48846 -2.52291 5.86227e-18 5.71955 -2.61445e-18 5.62996)
(5.43089 -2.49925 9.14236e-18 5.67556 -3.92744e-19 5.57592)
(5.35579 -2.46067 -4.22137e-18 5.5896 -2.76974e-18 5.47765)
(5.30155 -2.43158 1.73818e-17 5.52552 -2.07521e-18 5.40091)
(5.21808 -2.39927 -6.20773e-19 5.46077 -6.74609e-20 5.33677)
(4.86191 -2.23262 1.12846e-18 5.04214 -2.07271e-18 4.995)
(4.19794 -1.86879 3.6368e-19 4.0717 1.7226e-18 4.20484)
(3.72737 -1.57292 -1.21101e-18 3.32652 5.19074e-19 3.51727)
(3.88337 -1.68804 8.06066e-20 3.7631 -2.70813e-20 3.66414)
(4.26847 -2.00243 1.06478e-18 4.91499 -3.32818e-18 4.39949)
(3.8925 -1.945 -2.04029e-20 5.30341 5.24425e-21 4.59732)
(2.6376 -1.3312 1.0651e-18 3.99683 -1.55382e-18 3.33023)
(2.75536 -1.39904 -1.00142e-19 3.84565 -3.87305e-19 3.48134)
(0.0342458 -0.00337431 1.86782e-23 0.0295747 -2.50491e-22 0.0319149)
(0.0308986 -0.0039904 6.39674e-21 0.0311987 5.54846e-21 0.0310019)
(0.0259562 -0.00294675 3.47691e-20 0.030141 3.80249e-20 0.0281028)
(0.0210558 -0.00131982 4.04092e-20 0.0266145 2.73961e-20 0.0239841)
(0.0172299 -1.11229e-05 -5.20564e-20 0.022323 -3.76806e-20 0.0199633)
(0.0148512 0.000753637 2.96385e-20 0.0188577 4.16247e-21 0.0170461)
(0.0133952 0.00110063 -2.77851e-21 0.016273 2.11942e-21 0.0150138)
(0.0119496 0.00113565 2.49475e-21 0.0137642 -2.17494e-21 0.0130056)
(0.0101777 0.000970631 1.45153e-20 0.0111498 7.02121e-21 0.0107703)
(0.00834301 0.000750352 1.9497e-20 0.00879909 7.08101e-21 0.00863807)
(0.0066974 0.000552794 6.55886e-21 0.00689784 -4.1131e-22 0.00683499)
(0.00524999 0.000382998 -7.57974e-23 0.00533814 -2.34907e-21 0.00531265)
(0.00391353 0.000234309 -3.82923e-22 0.00395042 8.50978e-23 0.0039403)
(0.00268304 0.000119019 -2.04877e-21 0.00269427 -1.43014e-21 0.00269197)
(0.000718494 9.25992e-06 3.19577e-23 0.000718643 6.84369e-23 0.000718792)
(0.000151501 4.56533e-07 -7.08592e-24 0.000151462 1.00157e-24 0.000151491)
(0.000200934 9.40891e-07 8.94305e-24 0.000200722 8.26802e-24 0.000200838)
(0.000532951 8.52016e-06 -6.16328e-24 0.000529029 -2.50881e-23 0.000530891)
(0.00186597 0.000138504 -1.45304e-23 0.00170939 5.43765e-22 0.00177989)
(0.00661402 -0.000151932 1.11394e-21 0.00347569 4.84456e-21 0.00493929)
(0.0373763 -0.0113784 7.19378e-20 0.0237292 2.88459e-20 0.030683)
(0.127995 -0.0485549 2.64509e-19 0.0980337 8.16906e-20 0.114535)
(0.30591 -0.125018 -7.57708e-20 0.258326 -2.38616e-20 0.285279)
(0.59364 -0.252336 -1.12343e-18 0.53441 3.54976e-19 0.56627)
(1.00716 -0.438182 3.57215e-18 0.947502 -3.46718e-19 0.973693)
(1.54544 -0.68154 2.75791e-18 1.49418 1.45595e-18 1.50805)
(2.1848 -0.970793 2.19957e-18 2.14015 -4.70196e-19 2.14942)
(2.88321 -1.28684 3.36357e-18 2.83695 6.35674e-19 2.86024)
(3.58673 -1.60615 -4.01157e-18 3.5384 -8.94909e-19 3.58487)
(4.24077 -1.90557 -8.09861e-18 4.20832 -9.3206e-19 4.25711)
(4.80776 -2.16807 1.6519e-19 4.81654 8.31063e-19 4.83006)
(5.27318 -2.38591 -8.46944e-18 5.33745 -2.83978e-18 5.29703)
(5.57833 -2.52769 6.30866e-19 5.66603 -1.83928e-20 5.6097)
(5.56187 -2.50183 1.77204e-18 5.54688 -6.00653e-19 5.57056)
(5.26115 -2.30883 1.7779e-19 4.99239 4.53322e-20 5.16709)
(5.07936 -2.18838 5.80652e-18 4.69158 -2.77306e-19 4.87556)
(5.30404 -2.35539 -5.73243e-19 5.26279 -5.77104e-19 5.15846)
(5.53131 -2.58238 -4.49909e-18 6.1592 -2.15924e-19 5.685)
(5.05522 -2.4745 3.7479e-19 6.27728 4.03309e-20 5.65974)
(3.90466 -1.93366 1.77071e-18 5.02373 -8.64632e-19 4.49287)
(3.97903 -1.95219 6.10556e-18 4.78761 -2.20198e-18 4.60904)
(0.0231347 -0.00226154 -3.16756e-23 0.0199459 -2.76748e-22 0.0215651)
(0.0220532 -0.00279923 8.72556e-23 0.021655 -1.02458e-21 0.0218345)
(0.0203046 -0.00250171 -1.01664e-20 0.0226269 -1.64722e-20 0.0214537)
(0.0180154 -0.00161291 -1.52446e-20 0.0220267 -1.72749e-20 0.0200113)
(0.0156556 -0.000633432 3.35199e-20 0.0200698 3.27184e-20 0.017833)
(0.0135734 0.000112091 -3.27473e-20 0.017571 -2.32327e-20 0.0155184)
(0.0118999 0.000590671 1.73897e-20 0.0151773 7.19517e-21 0.0134762)
(0.0105407 0.000868219 -2.70257e-20 0.0130254 -8.28487e-21 0.011725)
(0.00928588 0.000981549 1.15866e-22 0.0109891 -2.02767e-21 0.0100845)
(0.00800704 0.00095641 -2.11168e-20 0.00903146 -1.97799e-20 0.00846752)
(0.00675353 0.000845972 -1.2267e-20 0.00728152 -4.50879e-21 0.00696779)
(0.00567451 0.000714481 2.02767e-21 0.00589588 -6.05584e-22 0.00574315)
(0.00487333 0.000603095 4.75968e-21 0.00492302 2.63886e-21 0.00486866)
(0.00431321 0.000514375 -1.01578e-20 0.00426407 2.68923e-21 0.00427254)
(0.00381793 0.000420804 1.90338e-20 0.00371369 2.21321e-22 0.00376162)
(0.00334037 0.000326984 2.30445e-21 0.0032157 2.15241e-21 0.00328137)
(0.00273316 0.000220499 1.91078e-21 0.00262307 -1.41371e-21 0.00268286)
(0.00191011 0.000109759 -1.11405e-21 0.00184405 1.05902e-23 0.00187889)
(0.000658292 1.36312e-05 1.25887e-23 0.000648804 -4.10705e-23 0.000653539)
(4.68029e-05 7.15222e-08 2.03576e-26 4.67457e-05 7.83875e-26 4.67733e-05)
(0.000293968 2.8913e-06 5.82384e-24 0.00029117 -2.62147e-24 0.000292558)
(0.000814899 2.2985e-05 -1.3313e-22 0.000785353 -1.02822e-22 0.000800886)
(0.0017615 0.000103684 -2.90966e-24 0.00155304 -2.70593e-22 0.00166667)
(0.00420734 0.000213174 -8.06599e-21 0.00266174 6.29538e-21 0.00349009)
(0.0141458 -0.00276262 -1.85807e-19 0.00743692 -6.23611e-20 0.0107033)
(0.0490841 -0.0172222 8.13131e-20 0.035384 -5.48057e-20 0.0410659)
(0.136252 -0.054276 -3.84606e-19 0.113039 -7.97165e-20 0.122)
(0.314518 -0.130958 -6.88694e-21 0.275379 -2.16625e-19 0.293342)
(0.631237 -0.268096 -2.64461e-19 0.566061 2.08838e-19 0.603707)
(1.1357 -0.488637 1.7305e-18 1.0387 5.57079e-19 1.10053)
(1.86141 -0.810099 -3.39336e-19 1.74147 1.23261e-19 1.81321)
(2.78782 -1.22389 5.09022e-19 2.66185 9.3727e-19 2.72052)
(3.78856 -1.6667 -1.84389e-19 3.63918 -2.32808e-19 3.69543)
(4.63985 -2.02678 -6.92963e-18 4.39373 -2.19986e-21 4.50348)
(5.21263 -2.25033 8.45325e-19 4.82553 -3.1951e-19 5.01947)
(5.63744 -2.43985 -2.6542e-19 5.25288 -3.3942e-19 5.42631)
(6.10946 -2.71836 -8.55672e-18 6.03261 4.29171e-19 5.99018)
(6.41793 -2.95784 6.1362e-19 6.83545 1.49825e-18 6.52603)
(6.10081 -2.90301 -9.5991e-21 6.92018 4.94503e-19 6.52443)
(5.31975 -2.52417 -5.7942e-18 5.94776 1.0254e-18 5.69493)
(5.25925 -2.48848 -5.23184e-18 5.74432 1.22711e-18 5.74109)
(0.0159438 -0.00155036 -1.97708e-21 0.0137286 -1.0927e-21 0.0148511)
(0.0156109 -0.00194041 1.04946e-20 0.0149931 6.98159e-21 0.0152899)
(0.0150805 -0.00192966 -1.05664e-20 0.0161996 -5.70062e-21 0.0156303)
(0.0140512 -0.00150118 -2.05826e-21 0.0166024 2.75495e-21 0.0153245)
(0.0127083 -0.000844693 3.00247e-21 0.0159886 -2.32588e-21 0.0143484)
(0.0113324 -0.000207345 9.82683e-21 0.0146479 8.98033e-21 0.0129913)
(0.0100925 0.000282747 -9.29485e-21 0.0130117 -1.04607e-20 0.0115616)
(0.00902846 0.000610654 2.61259e-20 0.0113548 1.47523e-20 0.0102165)
(0.00807953 0.000793387 9.88478e-21 0.00974931 1.68708e-21 0.00895455)
(0.00716774 0.000847978 -1.39986e-20 0.00821288 2.40486e-21 0.00773939)
(0.00627463 0.000805759 1.204e-20 0.00681397 2.431e-21 0.00659447)
(0.00544477 0.000714802 -1.1267e-20 0.00563842 -2.96451e-21 0.00558774)
(0.00474283 0.000618136 1.1083e-20 0.00472852 6.17247e-21 0.00477622)
(0.00420365 0.000537504 -2.37216e-21 0.00406627 -2.00395e-21 0.00416994)
(0.00381844 0.000476599 -1.8649e-20 0.00359889 -1.00033e-20 0.00373944)
(0.00351688 0.000422641 5.82926e-22 0.00323863 3.42587e-21 0.0034057)
(0.00326367 0.000371967 -8.11103e-21 0.00294346 -9.51851e-22 0.00312841)
(0.0030043 0.000318679 3.73721e-21 0.00266199 1.00316e-21 0.00285058)
(0.00270226 0.000260343 -6.50944e-21 0.00236501 -1.25768e-21 0.00253905)
(0.00228407 0.000188733 1.60229e-21 0.00200023 -6.93519e-22 0.00213743)
(0.00177023 0.000114596 2.63642e-22 0.00157806 7.51566e-22 0.00166908)
(0.00128622 6.0568e-05 -4.40887e-22 0.00117697 -6.50304e-23 0.00123069)
(0.000523857 1.03718e-05 -1.27796e-22 0.000504193 -2.05579e-23 0.000514424)
(0.000602357 1.34763e-05 2.80581e-24 0.000575361 1.9616e-23 0.000589822)
(0.00148261 7.57802e-05 -1.01757e-21 0.00131225 5.81861e-22 0.00140114)
(8.59672e-06 2.91246e-09 6.11595e-26 8.58813e-06 9.53674e-29 8.59224e-06)
(2.09229e-05 1.1255e-08 -3.09367e-25 2.08509e-05 6.83854e-26 2.08821e-05)
(0.000360991 -2.7662e-06 -2.49017e-22 0.000338814 8.26674e-24 0.000348499)
(0.00758432 -0.00143226 2.80541e-21 0.00482571 4.68569e-21 0.00622915)
(0.0404158 -0.0137338 1.93879e-19 0.0276239 -2.25346e-20 0.0351731)
(0.139254 -0.0546195 3.22286e-19 0.110496 -6.20151e-20 0.127989)
(0.391504 -0.162025 9.97436e-19 0.337335 -7.67413e-20 0.36667)
(0.898019 -0.377074 -1.44534e-18 0.796265 7.66365e-20 0.842617)
(1.71895 -0.720524 -3.90681e-18 1.52255 4.75561e-19 1.6073)
(2.82099 -1.18318 -5.06223e-18 2.49935 8.80955e-20 2.64112)
(4.06704 -1.7325 6.31978e-18 3.69663 -2.72028e-20 3.85366)
(5.2736 -2.30866 6.46533e-18 5.03456 3.39685e-19 5.10679)
(6.16308 -2.77267 8.55989e-18 6.18839 -1.91973e-19 6.13516)
(6.33815 -2.91389 8.64267e-18 6.59073 -7.18852e-19 6.51866)
(5.9842 -2.7075 -1.54884e-19 5.99602 4.96308e-19 6.07967)
(5.88235 -2.66806 -7.54328e-18 5.86767 1.48647e-18 6.10054)
(0.0110906 -0.00107952 -7.081e-22 0.00955181 -4.21681e-22 0.0103333)
(0.0109844 -0.00134116 -6.38198e-21 0.0103972 -4.14608e-21 0.0106873)
(0.0109231 -0.00141371 7.0652e-21 0.0113999 5.58236e-21 0.0111582)
(0.010609 -0.00124863 8.55501e-21 0.0121236 5.90258e-21 0.0113655)
(0.0100158 -0.000878938 1.64579e-20 0.012278 8.07857e-21 0.0111467)
(0.00928085 -0.000426842 -1.80315e-20 0.0118602 -1.37811e-20 0.010568)
(0.00853395 -7.16953e-06 -2.87676e-20 0.0110511 -1.15494e-20 0.00978851)
(0.00783124 0.000322186 -1.63056e-20 0.0100357 -9.66851e-21 0.00893098)
(0.00715808 0.000544004 2.85428e-21 0.00891514 1.4489e-21 0.00803672)
(0.00647269 0.000657629 1.48266e-20 0.00774272 9.64944e-21 0.00710786)
(0.00575987 0.000678285 -2.79401e-20 0.00658594 -1.06979e-20 0.00616911)
(0.00505094 0.000637321 4.0061e-21 0.00552931 2.46418e-21 0.0052807)
(0.0044062 0.000570291 2.4079e-20 0.00464181 2.36864e-21 0.00451004)
(0.00387195 0.000502189 -1.83349e-20 0.00394534 -4.36176e-21 0.00389175)
(0.00345417 0.000442745 -4.97885e-21 0.00341535 2.96124e-21 0.00341638)
(0.0031379 0.000393305 2.24578e-20 0.00301552 3.34424e-21 0.00305854)
(0.00290182 0.000351884 4.97548e-21 0.00271081 -1.51919e-22 0.00278989)
(0.00271354 0.000313631 -3.95719e-21 0.00246132 5.06122e-22 0.00257201)
(0.00254321 0.000273981 -3.29084e-21 0.00223568 6.59505e-22 0.00237159)
(0.00238245 0.000231709 -6.16667e-21 0.00202788 -4.77804e-22 0.00218197)
(0.00220026 0.000182404 1.04454e-20 0.00182389 5.11457e-22 0.00198776)
(0.00202878 0.000137733 -3.15974e-21 0.00165606 -4.60025e-23 0.00182632)
(0.00185473 0.00010164 -1.87508e-21 0.00151297 2.75807e-22 0.00168166)
(0.00156745 6.56612e-05 1.55229e-23 0.00130592 3.30693e-23 0.00144374)
(0.00119123 3.46561e-05 -8.43859e-22 0.00102738 -9.92133e-23 0.00111533)
(0.000875652 1.65216e-05 5.24368e-22 0.000777156 2.91047e-24 0.000827642)
(0.000189752 6.926e-07 -3.27924e-23 0.00018412 2.1391e-24 0.000186732)
(0.000102611 1.73038e-07 1.39347e-24 0.000100783 1.24231e-24 0.000101553)
(0.000372616 2.28664e-06 3.18421e-22 0.000347612 -2.44172e-23 0.000358337)
(0.00217852 4.44309e-05 1.21738e-21 0.00151093 -1.10677e-21 0.00184273)
(0.00145058 -3.43673e-05 -1.23912e-20 0.0011042 4.01562e-22 0.00130264)
(0.00523433 -0.000953702 -1.73441e-20 0.00350967 -1.72347e-21 0.00452347)
(0.0297106 -0.0104905 9.27253e-20 0.0217788 4.00206e-21 0.0259671)
(0.135334 -0.0534671 6.16097e-19 0.110028 3.40009e-22 0.121686)
(0.448233 -0.183088 3.70485e-20 0.382062 6.21814e-20 0.410639)
(1.14387 -0.478007 3.42216e-19 1.00976 -5.13594e-20 1.06528)
(2.25397 -0.960274 -3.21755e-20 2.05245 -1.36747e-19 2.13212)
(3.52293 -1.52346 9.11228e-19 3.28058 -3.55231e-19 3.38558)
(4.38757 -1.9167 -5.30622e-18 4.12286 -2.03444e-20 4.30174)
(4.6108 -1.95127 2.13135e-19 4.09488 -7.07398e-21 4.4247)
(4.79593 -2.04161 4.65139e-18 4.27231 -6.48949e-19 4.69664)
(0.00779507 -0.000762859 5.45469e-22 0.00672315 3.16368e-22 0.00726725)
(0.00775476 -0.00093448 5.62506e-23 0.00727408 1.08866e-22 0.00751291)
(0.00781555 -0.00101099 1.11623e-20 0.00798612 5.63461e-21 0.0078993)
(0.00779782 -0.000965061 4.48452e-22 0.00865871 -5.87013e-22 0.00822745)
(0.00761663 -0.000782813 1.11993e-21 0.00908245 -1.16105e-21 0.00834873)
(0.00729842 -0.000503262 4.34319e-22 0.00915681 2.83355e-21 0.00822517)
(0.00690497 -0.000192702 1.24872e-20 0.0088977 8.78626e-21 0.00789691)
(0.00648305 9.2458e-05 -9.89243e-22 0.00838364 -5.93569e-22 0.00742878)
(0.00604502 0.000318445 3.94145e-22 0.00769064 4.66737e-21 0.00686549)
(0.00558499 0.000468818 2.92353e-20 0.00688409 7.6259e-21 0.00623509)
(0.00509915 0.000542328 2.85046e-21 0.00603153 2.92015e-21 0.00556753)
(0.00460136 0.00055305 -2.12061e-20 0.00520521 -5.18347e-21 0.00490551)
(0.00412526 0.00052466 -3.61588e-21 0.00447008 -5.59727e-21 0.00429907)
(0.00370465 0.000479758 5.50648e-21 0.00386061 5.27137e-21 0.0037825)
(0.00335226 0.000431969 -6.46985e-21 0.00337337 -2.79812e-21 0.00336078)
(0.00306579 0.000387095 -5.63056e-21 0.00298838 -3.63131e-21 0.00302378)
(0.00283876 0.000346756 -9.08489e-21 0.0026848 -1.28152e-21 0.00275906)
(0.00265818 0.000309516 1.28154e-20 0.00243925 2.30015e-21 0.00254807)
(0.00250224 0.00027192 -3.18799e-21 0.00222521 -2.70617e-22 0.00236432)
(0.00235505 0.000232057 1.05014e-22 0.0020273 1.09771e-21 0.00219023)
(0.00221935 0.000191188 -4.36242e-22 0.0018505 -2.38399e-21 0.00203091)
(0.00210783 0.000153166 1.03675e-21 0.00171006 1.29914e-21 0.00190482)
(0.00204756 0.000124191 -1.05047e-21 0.00162571 2.37694e-22 0.00183837)
(0.00202679 0.000102274 -2.00225e-22 0.00158374 -1.75608e-23 0.00181679)
(0.0019418 7.55698e-05 -5.81504e-21 0.00151097 2.81584e-22 0.0017435)
(0.00182229 4.55414e-05 4.00516e-21 0.00141738 -3.50636e-23 0.00163181)
(0.00162088 1.33982e-05 -2.24287e-22 0.00127461 -6.97615e-23 0.0014454)
(0.00127175 -7.52851e-06 -1.16303e-21 0.0010392 1.24475e-22 0.00114287)
(0.000893637 -9.196e-06 -1.28381e-21 0.000766102 -1.39256e-22 0.000819694)
(0.00030793 -1.06326e-06 -8.47154e-23 0.000289234 1.06918e-23 0.000297603)
(9.92914e-06 -1.56923e-10 3.89838e-25 9.90639e-06 2.54736e-26 9.91816e-06)
(0.000221338 1.22839e-08 -7.34598e-23 0.000209952 1.358e-23 0.000216477)
(0.000806378 -2.09558e-05 -1.24354e-23 0.000668039 -1.21462e-23 0.00074757)
(0.00524723 -0.00122751 -3.09662e-20 0.00352148 -1.72516e-21 0.0044308)
(0.00077215 -3.43809e-05 7.96657e-22 0.000756224 -6.6874e-25 0.000763296)
(0.042845 -0.0175907 -2.11936e-20 0.0379302 -2.04038e-21 0.039799)
(0.246365 -0.102067 1.08295e-19 0.214997 1.392e-20 0.227576)
(0.740265 -0.30068 -3.99007e-18 0.624445 4.88553e-20 0.677018)
(1.35883 -0.543313 -1.26766e-19 1.11054 7.99436e-20 1.247)
(1.67819 -0.63123 7.28259e-21 1.26296 8.38405e-22 1.49094)
(1.98666 -0.766565 3.07652e-18 1.5344 -1.40916e-19 1.82374)
(0.00550865 -0.000544244 -1.75728e-21 0.00476339 -8.46409e-22 0.00514169)
(0.00548508 -0.000655868 1.79558e-21 0.00512017 8.24728e-22 0.00530241)
(0.00555169 -0.000715079 1.39826e-22 0.00559331 -7.45852e-22 0.00557223)
(0.00561971 -0.000712511 -8.72956e-21 0.00610368 -4.63432e-21 0.00586169)
(0.00562004 -0.000631725 -4.52094e-22 0.00653589 9.29523e-22 0.00607802)
(0.00553459 -0.000476763 9.80978e-21 0.00679842 4.09734e-21 0.00616578)
(0.0053793 -0.000274152 -4.40668e-22 0.0068503 -2.90045e-21 0.00611265)
(0.00517808 -5.92774e-05 -1.90409e-20 0.0066979 -6.05586e-21 0.00593456)
(0.00494559 0.000136593 3.15721e-20 0.00637253 1.11199e-20 0.00565519)
(0.00468296 0.00029114 -9.98577e-21 0.00591213 -8.97067e-21 0.00529399)
(0.0043893 0.000393145 1.22913e-20 0.0053636 3.48958e-21 0.00487292)
(0.00406901 0.00044323 1.29487e-20 0.00477906 4.66706e-21 0.00441983)
(0.00373754 0.000452003 -1.99598e-20 0.00421007 -4.55262e-21 0.00396861)
(0.00341837 0.0004348 1.46634e-20 0.00369658 1.42892e-21 0.0035512)
(0.0031278 0.000404499 -1.91663e-20 0.00325419 -1.82313e-21 0.00318392)
(0.00287316 0.000369145 5.78834e-21 0.00288207 2.84436e-21 0.0028706)
(0.00265865 0.000333222 3.82193e-21 0.00257538 7.1031e-22 0.0026116)
(0.00248471 0.000298542 -3.48947e-22 0.00232643 5.33815e-22 0.00240326)
(0.00234271 0.000264401 3.46298e-24 0.00212091 -2.35388e-23 0.0022325)
(0.0022143 0.00022871 -3.46629e-22 0.00193925 -5.67694e-22 0.00207812)
(0.00208656 0.000191266 -5.51027e-21 0.00177097 2.75223e-22 0.00192771)
(0.00196524 0.000155531 6.75834e-21 0.00162369 -1.02222e-22 0.00179035)
(0.00186415 0.00012587 -1.18876e-21 0.00150859 4.22626e-22 0.00168198)
(0.0017953 0.000103556 4.35651e-23 0.00143018 -7.58792e-23 0.00161226)
(0.00175978 8.49967e-05 9.07409e-23 0.00138361 4.79543e-22 0.00157706)
(0.00173677 6.33201e-05 1.4282e-21 0.00134916 3.67396e-23 0.0015507)
(0.00173607 3.50242e-05 -3.24462e-21 0.00132984 -1.78012e-23 0.00153554)
(0.0017119 -9.42953e-07 3.32305e-21 0.00130415 5.44439e-23 0.0014989)
(0.00165423 -3.36491e-05 -3.20469e-21 0.0012695 2.28119e-22 0.00144356)
(0.00141698 -4.33663e-05 2.63568e-21 0.00112045 -4.54683e-23 0.00125591)
(0.00101071 -2.7291e-05 -7.7329e-22 0.000840662 -1.5707e-22 0.000926033)
(0.000703041 -1.31633e-05 1.31928e-21 0.000611396 -1.71128e-23 0.000662692)
(0.000128353 -5.38197e-07 3.47924e-23 0.000124706 -1.46865e-24 0.000126837)
(2.20088e-05 -2.91754e-08 3.47802e-27 2.18827e-05 1.25827e-25 2.19539e-05)
(1.69955e-05 -4.14483e-08 1.67765e-24 1.6918e-05 -1.41612e-25 1.69564e-05)
(0.000650175 -7.05471e-05 -2.83042e-21 0.000604441 -3.51454e-23 0.000617918)
(5.13241e-05 -3.39363e-07 1.72947e-23 5.10881e-05 -1.79713e-25 5.11653e-05)
(0.0277082 -0.00891378 2.21077e-19 0.0181964 6.42089e-21 0.0223444)
(0.112439 -0.0360223 -3.8881e-20 0.0714381 -2.97921e-21 0.0927138)
(0.206495 -0.0624204 3.95762e-20 0.124492 3.04733e-23 0.167287)
(0.279944 -0.0941564 -5.60019e-19 0.184743 1.95214e-20 0.241883)
(0.00390603 -0.000390853 2.10136e-23 0.00338974 1.23003e-22 0.00365182)
(0.00388847 -0.000463497 -1.12281e-20 0.00362331 -4.69784e-21 0.0037561)
(0.00393495 -0.000504697 -1.5483e-22 0.00393032 -5.30646e-22 0.00393267)
(0.00400717 -0.00051362 -1.29395e-20 0.00428464 -4.95021e-21 0.00414597)
(0.00406409 -0.000480434 2.00227e-20 0.00463132 8.96387e-21 0.00434787)
(0.0040823 -0.000400524 -1.41242e-20 0.00491342 -7.14326e-21 0.00449776)
(0.00405693 -0.000280356 -6.95171e-21 0.00508766 -1.60069e-21 0.00457148)
(0.00399292 -0.000135843 6.26043e-21 0.00513175 3.29619e-21 0.00456062)
(0.0038963 1.31745e-05 -2.39927e-20 0.00504298 -1.02057e-20 0.00446729)
(0.00376978 0.000147678 -1.43491e-20 0.00483344 -6.4585e-21 0.0042993)
(0.00361443 0.000253694 -7.01988e-21 0.00452777 -1.97612e-21 0.0040692)
(0.00343207 0.000324621 3.41554e-22 0.0041582 9.84281e-22 0.00379372)
(0.00322938 0.000361193 -1.51961e-21 0.00376148 1.81346e-21 0.00349475)
(0.00301971 0.000370295 -1.33054e-20 0.00337294 -3.73363e-21 0.00319641)
(0.00281514 0.000360622 1.88628e-20 0.00301491 5.172e-21 0.00291595)
(0.00262449 0.000339695 1.56811e-21 0.00269807 -1.02679e-22 0.00266306)
(0.00245411 0.000313053 -8.3417e-21 0.00242631 -2.46452e-21 0.00244299)
(0.00230835 0.00028437 2.19144e-20 0.00219963 3.30575e-21 0.00225804)
(0.00218664 0.000255283 -4.59592e-21 0.00201238 -6.06196e-22 0.00210456)
(0.00207928 0.000225256 -3.57393e-21 0.00185107 -1.01632e-21 0.00196987)
(0.00197252 0.00019331 3.78244e-21 0.00170173 9.50237e-22 0.00183928)
(0.0018638 0.000160972 -5.01969e-21 0.00156377 -8.68653e-22 0.00171221)
(0.00176045 0.000131348 5.35653e-21 0.00144404 1.01103e-21 0.00159835)
(0.00167277 0.000106507 -9.89904e-22 0.00134843 -6.76532e-22 0.00150795)
(0.00161294 8.62543e-05 -9.35247e-22 0.00128247 -1.06022e-22 0.00144976)
(0.00158188 6.71938e-05 6.17087e-21 0.00124287 1.99446e-22 0.00141957)
(0.00156891 4.50387e-05 -3.6209e-22 0.00121897 1.06599e-22 0.00140289)
(0.00156237 1.7811e-05 -7.40081e-23 0.00120282 -5.11818e-22 0.00138805)
(0.0015563 -1.24301e-05 -4.9643e-23 0.00119361 4.84994e-22 0.00137405)