/*--------------------------------*- C++ -*----------------------------------*\
| =========                 |                                                 |
| \\      /  F ield         | OpenFOAM: The Open Source CFD Toolbox           |
|  \\    /   O peration     | Version:  2312                                  |
|   \\  /    A nd           | Website:  www.openfoam.com                      |
|    \\/     M anipulation  |                                                 |
\*---------------------------------------------------------------------------*/
FoamFile
{
    version     2.0;
    format      ascii;
    arch        "LSB;label=32;scalar=64";
    class       volSymmTensorField;
    location    "50";
    object      turbulenceProperties:devReff;
}
// * * * * * * * * * * * * * * * * * * * * * * * * * * * * * * * * * * * * * //

dimensions      [0 2 -2 0 0 0 0];

internalField   nonuniform List<symmTensor> 
11040
(
(0.110195 0.183157 5.07135e-21 -0.126297 3.10514e-20 0.0161018)
(0.483839 0.211278 -2.39614e-20 -0.551864 5.40715e-19 0.0680253)
(1.04693 -0.0318059 8.47995e-19 -1.14876 7.12699e-19 0.101824)
(1.61992 -0.529219 1.60635e-19 -1.72293 -9.01511e-19 0.103018)
(2.25031 -1.27838 -9.58752e-21 -2.34596 -1.22719e-20 0.0956514)
(3.32745 -2.68865 -1.40089e-19 -3.42252 -3.5001e-18 0.0950729)
(5.4769 -5.98074 1.17933e-18 -5.55782 -2.3642e-17 0.0809186)
(6.00391 -8.70329 1.04053e-17 -5.96346 -3.74898e-17 -0.0404503)
(5.35886 -9.94969 1.37442e-17 -5.1864 3.17922e-17 -0.172456)
(4.73772 -10.6266 -3.33211e-18 -4.52517 2.3069e-17 -0.212552)
(4.31513 -11.2457 -1.22373e-18 -4.13514 2.57836e-17 -0.179989)
(3.95822 -11.8672 -1.61056e-17 -3.83251 5.59617e-18 -0.125718)
(3.57165 -12.4261 -7.54239e-18 -3.48588 -8.9145e-18 -0.0857753)
(3.12101 -12.8461 -3.83037e-18 -3.05556 -6.05015e-18 -0.0654457)
(2.61285 -13.0884 1.63494e-18 -2.55583 -1.31242e-18 -0.0570222)
(2.07177 -13.1511 -1.53624e-19 -2.01954 -2.14257e-18 -0.0522287)
(1.52442 -13.0454 2.98677e-18 -1.47802 -1.75191e-18 -0.0463966)
(0.993153 -12.7743 -1.23366e-20 -0.95603 2.91781e-19 -0.0371226)
(0.487319 -12.3493 -1.21199e-18 -0.461876 -3.3084e-19 -0.0254428)
(0.0167233 -11.7952 -2.32118e-19 -0.000179795 -2.79003e-19 -0.0165436)
(-0.412251 -11.1104 3.74656e-19 0.426756 -6.9058e-19 -0.0145049)
(-0.746731 -10.3357 2.01026e-18 0.766591 1.69489e-18 -0.0198601)
(-0.960565 -9.56152 1.75095e-19 0.992336 1.29145e-18 -0.0317715)
(-1.08966 -8.78102 1.26233e-19 1.12838 7.63377e-18 -0.0387199)
(-1.15286 -7.96456 -3.4774e-18 1.1901 -2.16964e-18 -0.0372394)
(-1.16377 -7.12485 2.3409e-18 1.19493 -2.32733e-18 -0.0311606)
(-1.13491 -6.28758 -3.13801e-19 1.15685 -3.4307e-18 -0.0219334)
(-1.08296 -5.49316 3.36928e-19 1.0968 6.79658e-20 -0.0138383)
(-1.02059 -4.76374 1.25278e-19 1.03461 -1.12665e-18 -0.0140295)
(-0.939959 -4.07139 2.10204e-18 0.961739 1.14977e-18 -0.0217798)
(-0.826144 -3.37625 2.19139e-19 0.855141 3.12395e-18 -0.0289964)
(-0.678575 -2.66325 8.69668e-20 0.707222 -1.34423e-18 -0.0286473)
(-0.538551 -1.98656 2.1502e-18 0.561265 4.07746e-18 -0.0227145)
(-0.471914 -1.52027 -3.49887e-19 0.491275 -3.55959e-20 -0.0193607)
(-0.477856 -1.35297 1.50759e-18 0.504838 1.40504e-18 -0.0269822)
(-0.410092 -1.23212 -3.48953e-20 0.431954 8.63142e-19 -0.0218618)
(-0.151464 -0.823412 -1.65085e-19 0.129555 -8.79124e-21 0.021909)
(0.0582185 -0.150707 -2.66234e-22 -0.0914397 -8.02935e-24 0.0332213)
(0.0646377 0.0343215 -1.48181e-22 -0.104941 -2.53108e-21 0.0403029)
(-0.0806542 -0.132156 2.83948e-20 0.09134 2.4535e-21 -0.0106859)
(-0.283593 -0.0477915 6.12743e-20 0.333268 -1.26024e-19 -0.0496742)
(0.0250586 -0.0313951 6.4073e-22 -0.0186148 7.25923e-22 -0.00644377)
(0.00782774 -0.0407265 7.24633e-20 0.00744696 -9.37513e-20 -0.0152747)
(0.0110401 -0.0479744 -2.59074e-19 0.0118176 -3.90905e-19 -0.0228577)
(0.0648719 -0.092486 -4.13171e-19 -0.0262086 -5.56942e-20 -0.0386633)
(0.243496 -0.223015 9.34046e-20 -0.192923 -2.12015e-19 -0.0505727)
(0.558833 -0.497894 -1.85597e-18 -0.517834 -1.04679e-18 -0.0409994)
(1.1276 -1.12812 -4.16291e-18 -1.11506 3.90829e-18 -0.0125383)
(1.75203 -2.02211 -2.64682e-18 -1.80772 1.95204e-17 0.0556855)
(2.18483 -2.89847 -9.99718e-19 -2.32907 -1.41833e-17 0.144244)
(2.40626 -3.69871 3.18013e-18 -2.60677 -1.35531e-17 0.200503)
(2.43799 -4.4019 1.12026e-18 -2.64789 -2.71133e-17 0.209902)
(2.31618 -4.96205 1.92789e-17 -2.50522 -1.02162e-20 0.189046)
(2.07906 -5.32657 4.134e-18 -2.23681 1.51666e-17 0.157752)
(1.76072 -5.44728 2.48975e-18 -1.88807 1.35988e-17 0.127345)
(1.40512 -5.3269 -5.50693e-18 -1.50603 4.23649e-19 0.100913)
(1.05852 -5.01992 -2.14071e-18 -1.13722 2.1036e-18 0.0786965)
(0.754215 -4.60545 -2.06703e-18 -0.815838 1.26607e-19 0.0616233)
(0.507182 -4.17235 6.43461e-19 -0.557488 2.37569e-18 0.050306)
(0.3139 -3.78157 -7.80146e-19 -0.356011 8.84679e-19 0.0421104)
(0.161822 -3.44149 3.53956e-19 -0.195819 2.57141e-19 0.0339974)
(0.0384159 -3.1539 -1.76744e-18 -0.0640263 1.2541e-18 0.0256104)
(-0.0528796 -2.91744 -2.33813e-18 0.033714 -4.04545e-18 0.0191656)
(-0.109795 -2.71851 3.39732e-18 0.0928434 -2.91439e-19 0.016952)
(-0.14108 -2.54801 4.63941e-18 0.119479 -8.97314e-18 0.0216004)
(-0.155009 -2.41681 3.54331e-18 0.122414 3.98869e-18 0.0325952)
(-0.161163 -2.30997 -4.18175e-18 0.116431 1.79707e-18 0.0447314)
(-0.172583 -2.2047 9.02735e-19 0.123791 5.17547e-18 0.0487924)
(-0.195209 -2.08938 -2.96955e-19 0.153998 -5.35565e-20 0.0412112)
(-0.216963 -1.95752 -3.67427e-18 0.189834 1.24018e-18 0.0271289)
(-0.218049 -1.82401 -3.03939e-18 0.200001 -4.98314e-18 0.0180484)
(-0.189592 -1.69541 -3.81745e-18 0.171778 -5.05662e-18 0.0178147)
(-0.154431 -1.58105 -5.19261e-18 0.131581 -2.61651e-20 0.0228503)
(-0.162765 -1.48038 -4.43542e-18 0.128296 -1.11435e-17 0.0344693)
(-0.205979 -1.31308 5.56509e-19 0.151094 1.28651e-18 0.0548853)
(-0.161525 -0.965751 -2.42559e-19 0.106663 -4.60815e-18 0.0548612)
(0.0288096 -0.530607 -2.72248e-18 -0.0389135 -2.70143e-18 0.0101039)
(0.163587 -0.279263 1.68052e-19 -0.133553 1.80623e-20 -0.0300345)
(0.0596436 -0.417661 1.4103e-19 -0.0212552 7.77541e-19 -0.0383884)
(-0.397865 -0.917057 1.49676e-21 0.354278 7.79202e-21 0.0435872)
(-0.443427 -0.731298 -3.98152e-20 0.388719 5.56937e-19 0.0547077)
(-0.813959 -1.48791 -1.85105e-18 0.444315 7.37284e-19 0.369644)
(0.0119078 -0.0193289 -1.11021e-20 -0.0121866 -2.72954e-20 0.000278805)
(-0.00812699 -0.0131944 -1.08311e-19 0.00466397 -1.06818e-19 0.00346302)
(-0.0149137 3.49479e-05 5.19691e-20 0.00916331 1.77025e-19 0.00575044)
(-0.0126587 0.00577184 8.04486e-20 0.00770237 6.64698e-20 0.00495636)
(-0.00861819 0.00582402 -1.28205e-19 0.00526269 -6.75426e-20 0.0033555)
(-0.00363495 0.00258008 -2.71444e-20 0.00158235 1.34364e-19 0.0020526)
(0.00662597 -0.00765878 2.20676e-19 -0.00747368 2.41807e-19 0.000847708)
(0.0323374 -0.0393222 1.85807e-19 -0.0311616 -3.19812e-19 -0.00117578)
(0.0712291 -0.0997715 -3.56979e-19 -0.0667984 3.70149e-19 -0.00443067)
(0.110215 -0.181529 9.26682e-20 -0.102396 -2.51314e-19 -0.00781903)
(0.150703 -0.29191 -4.21407e-19 -0.139933 7.66884e-19 -0.0107706)
(0.201865 -0.454315 -3.06044e-18 -0.189023 -2.71e-18 -0.0128422)
(0.269473 -0.695348 6.89634e-19 -0.255967 -1.41306e-18 -0.0135059)
(0.351074 -1.03385 2.40127e-19 -0.33848 -8.26628e-19 -0.0125933)
(0.431883 -1.46306 1.67094e-18 -0.421523 1.49681e-18 -0.0103597)
(0.490594 -1.94775 1.73286e-18 -0.482935 3.24869e-19 -0.00765863)
(0.508112 -2.43315 7.16286e-19 -0.502488 2.5717e-19 -0.00562423)
(0.474416 -2.85429 3.20856e-18 -0.469968 2.10442e-19 -0.00444808)
(0.392336 -3.15473 9.99481e-19 -0.390107 -2.56382e-19 -0.00222906)
(0.276972 -3.30963 -7.29394e-19 -0.278684 -7.22475e-19 0.00171137)
(0.147472 -3.32612 2.93751e-18 -0.153213 1.31275e-18 0.00574103)
(0.0284751 -3.24439 1.37698e-18 -0.0332981 1.45911e-18 0.00482293)
(-0.0608377 -3.11766 -2.53742e-18 0.0614631 -2.52949e-18 -0.000625393)
(-0.118692 -2.97036 -5.43926e-18 0.123992 -6.35259e-18 -0.00530011)
(-0.150785 -2.82816 -5.85205e-18 0.157079 -4.35631e-18 -0.00629338)
(-0.165285 -2.69074 6.2738e-18 0.168807 3.71643e-19 -0.00352148)
(-0.175854 -2.56053 -3.84862e-19 0.178232 1.15816e-19 -0.00237788)
(-0.190656 -2.43327 1.61215e-19 0.195471 -1.29123e-18 -0.00481525)
(-0.202659 -2.30988 4.27762e-18 0.211444 3.76301e-18 -0.00878491)
(-0.193323 -2.18892 -3.92248e-18 0.203024 4.67183e-18 -0.00970129)
(-0.157192 -2.07446 8.2544e-18 0.164573 1.11011e-18 -0.00738159)
(-0.125035 -1.98853 -1.01299e-18 0.128809 7.27793e-18 -0.00377385)
(-0.147661 -1.93065 8.41575e-19 0.138683 3.50015e-18 0.00897754)
(-0.185597 -1.77101 6.07966e-18 0.148774 -3.80727e-19 0.0368224)
(-0.0799085 -1.38098 -4.75856e-18 0.0340372 3.55713e-19 0.0458713)
(0.156376 -0.934596 -8.55647e-20 -0.147645 2.05736e-18 -0.00873181)
(0.18244 -0.883139 3.17645e-19 -0.0841196 2.4773e-20 -0.0983206)
(-0.156459 -1.30298 2.39878e-18 0.273676 4.9782e-19 -0.117217)
(-0.671999 -1.47556 -2.09887e-19 0.660615 -1.91159e-20 0.0113842)
(-0.659654 -0.947306 3.16522e-18 0.6457 -5.17673e-19 0.013954)
(-0.788801 -1.05565 2.09443e-18 0.719183 3.93884e-19 0.0696181)
(0.00849023 -0.0132325 1.09648e-20 -0.00863034 1.89142e-20 0.000140105)
(-0.00228519 -0.014699 2.48024e-20 0.00267373 6.03432e-20 -0.000388533)
(-0.00873942 -0.00983398 -5.38286e-20 0.00967113 -7.8768e-20 -0.000931704)
(-0.0100372 -0.0040322 -6.0667e-20 0.0112676 -4.02272e-20 -0.00123047)
(-0.00873449 -3.29671e-05 8.43365e-20 0.00989894 6.62602e-20 -0.00116446)
(-0.00686431 0.0020456 7.79745e-20 0.00774144 4.91712e-20 -0.000877123)
(-0.00480372 0.00276807 -1.16597e-20 0.00538631 -3.68385e-20 -0.000582593)
(-0.0030204 0.00274203 2.41928e-21 0.00342579 -3.31387e-21 -0.000405386)
(-0.00169612 0.00242209 -7.57031e-21 0.00200149 9.8247e-21 -0.000305371)
(-0.000775036 0.00194676 -4.79245e-20 0.00100228 4.17265e-21 -0.000227243)
(-0.000203338 0.00139562 4.41771e-21 0.000361644 1.5171e-20 -0.000158307)
(0.000136987 0.000819358 3.27424e-20 -3.42624e-05 4.27583e-20 -0.000102725)
(0.000410699 0.000193992 -4.26766e-22 -0.000343965 -5.72956e-22 -6.67346e-05)
(0.00106968 -0.0010314 6.60499e-20 -0.00100732 -5.9237e-21 -6.23585e-05)
(0.00450275 -0.00823902 -1.84368e-20 -0.00440611 -4.62766e-20 -9.66495e-05)
(0.013262 -0.0337595 -2.12616e-19 -0.013165 -2.37026e-19 -9.70007e-05)
(0.0274022 -0.0896782 -5.38376e-19 -0.0272538 -1.11024e-20 -0.000148422)
(0.0474869 -0.195374 1.03536e-19 -0.0470284 -2.62768e-19 -0.0004585)
(0.0718637 -0.371767 -4.36464e-19 -0.0712269 -2.7442e-19 -0.00063682)
(0.0952748 -0.629979 -2.5111e-19 -0.0958942 1.49595e-19 0.000619336)
(0.108975 -0.966541 -4.34113e-19 -0.113784 -5.93118e-19 0.00480939)
(0.102322 -1.33778 -1.58495e-18 -0.112066 -5.26504e-20 0.00974401)
(0.0749487 -1.68419 -4.17835e-20 -0.0856632 7.28603e-19 0.0107145)
(0.0331284 -1.97848 -4.26739e-18 -0.0396445 8.06227e-19 0.00651609)
(-0.0133201 -2.21302 -1.38521e-18 0.0140825 4.38472e-18 -0.000762358)
(-0.052866 -2.37768 -1.0584e-17 0.0574611 -7.3518e-19 -0.00459508)
(-0.0826503 -2.47801 1.14709e-18 0.0831593 8.52735e-19 -0.000508933)
(-0.106269 -2.52379 -5.19845e-18 0.0967973 1.18701e-18 0.00947183)
(-0.12448 -2.52866 5.87563e-18 0.107139 -2.62042e-18 0.0173412)
(-0.130184 -2.5047 9.1623e-18 0.115019 -3.93601e-19 0.0151649)
(-0.118801 -2.46583 -4.23023e-18 0.115493 -2.77555e-18 0.00330859)
(-0.107998 -2.43648 1.74167e-17 0.116429 -2.07939e-18 -0.00843098)
(-0.12069 -2.40389 -6.21967e-19 0.122461 -6.75907e-20 -0.001771)
(-0.104636 -2.23679 1.13057e-18 0.0759326 -2.07658e-18 0.0287038)
(0.0398587 -1.87232 3.64367e-19 -0.0866256 1.72585e-18 0.0467669)
(0.204045 -1.57598 -1.21337e-18 -0.197582 5.20084e-19 -0.00646244)
(0.113371 -1.69114 8.07546e-20 -0.00711683 -2.7131e-20 -0.106254)
(-0.259587 -2.00556 1.06645e-18 0.387946 -3.33338e-18 -0.128359)
(-0.706191 -1.94762 -2.04303e-20 0.706612 5.2513e-21 -0.00042113)
(-0.684816 -1.33287 1.06645e-18 0.676128 -1.55578e-18 0.00868761)
(-0.606185 -1.4008 -1.00267e-19 0.485476 -3.87791e-19 0.120709)
(0.00614302 -0.00888101 4.91601e-23 -0.00615112 -6.59279e-22 8.10028e-06)
(-0.00035361 -0.0104932 1.6821e-20 0.000435442 1.45903e-20 -8.1832e-05)
(-0.00554433 -0.00774124 9.134e-20 0.00544948 9.98933e-20 9.4856e-05)
(-0.00741799 -0.0034607 1.05957e-19 0.00715754 7.18354e-20 0.000260448)
(-0.00685861 -2.92417e-05 -1.36854e-19 0.00653103 -9.90605e-20 0.000327582)
(-0.00552898 0.00201574 7.92739e-20 0.00518716 1.11333e-20 0.000341825)
(-0.00421815 0.00309761 -7.81985e-21 0.00388106 5.9649e-21 0.000337088)
(-0.0029925 0.00355168 7.80222e-21 0.0026825 -6.80203e-21 0.000310009)
(-0.00189952 0.00353488 5.28624e-20 0.00164075 2.55701e-20 0.000258768)
(-0.0010747 0.00322071 8.36863e-20 0.000882914 3.03936e-20 0.000191787)
(-0.000570117 0.00279704 3.31867e-20 0.000444054 -2.08115e-21 0.000126063)
(-0.000314625 0.00239718 -4.74415e-22 0.000237053 -1.47028e-20 7.75715e-05)
(-0.00018782 0.00207424 -3.38986e-21 0.000138705 7.53333e-22 4.91144e-05)
(-0.000103346 0.00182954 -3.14933e-20 6.92868e-05 -2.19839e-20 3.40589e-05)
(-2.56521e-05 0.00159635 5.50932e-21 1.92157e-08 1.17981e-20 2.56329e-05)
(5.13349e-05 0.00143062 -2.2205e-20 -7.06324e-05 3.13859e-21 1.92975e-05)
(0.000131549 0.00120772 1.14792e-20 -0.000140111 1.06128e-20 8.56188e-06)
(0.000211265 0.000902521 -6.52862e-22 -0.000204275 -2.65752e-21 -6.9896e-06)
(0.000361816 0.000619546 -6.49964e-23 -0.000338596 2.43234e-21 -2.32199e-05)
(0.00194697 -0.000184378 1.35184e-21 -0.00186157 5.87916e-21 -8.54056e-05)
(0.00716873 -0.0120306 7.60612e-20 -0.0072606 3.04993e-20 9.18701e-05)
(0.0148726 -0.0498937 2.71802e-19 -0.0159145 8.39431e-20 0.00104193)
(0.0231049 -0.127033 -7.69922e-20 -0.0252463 -2.42462e-20 0.00214139)
(0.0291707 -0.254988 -1.13524e-18 -0.0306827 3.58708e-19 0.00151209)
(0.0312698 -0.441419 3.59854e-18 -0.0288271 -3.4928e-19 -0.00244269)
(0.0297147 -0.685289 2.77308e-18 -0.0218284 1.46396e-18 -0.00788631)
(0.0267923 -0.974961 2.20902e-18 -0.01805 -4.72215e-19 -0.00874232)
(0.0231607 -1.29132 3.37529e-18 -0.0232665 6.3789e-19 0.000105843)
(0.016778 -1.61085 -4.0233e-18 -0.0316892 -8.97527e-19 0.0149112)
(0.00538321 -1.9104 -8.11912e-18 -0.027152 -9.3442e-19 0.0217688)
(-0.0103799 -2.17294 1.65561e-19 -0.0015847 8.32929e-19 0.0119646)
(-0.0294297 -2.39074 -8.48657e-18 0.0349673 -2.84552e-18 -0.00553753)
(-0.0397653 -2.53236 6.3203e-19 0.048099 -1.84267e-20 -0.00833368)
(0.00210671 -2.50615 1.7751e-18 -0.0129104 -6.0169e-19 0.0108036)
(0.121142 -2.3127 1.78087e-19 -0.148068 4.5408e-20 0.0269261)
(0.197515 -2.19193 5.81595e-18 -0.190901 -2.77756e-19 -0.00661386)
(0.0623682 -2.35887 -5.7409e-19 0.0210557 -5.77957e-19 -0.0834239)
(-0.260858 -2.58568 -4.50483e-18 0.36783 -2.16199e-19 -0.106972)
(-0.609541 -2.47728 3.75211e-19 0.613886 4.03763e-20 -0.00434524)
(-0.569692 -1.93569 1.77257e-18 0.550556 -8.65543e-19 0.0191366)
(-0.480012 -1.95415 6.11168e-18 0.329382 -2.20419e-18 0.15063)
(0.00418226 -0.00596315 -8.35212e-23 -0.00422586 -7.29718e-22 4.36061e-05)
(0.0005421 -0.00737819 2.29988e-22 -0.000507632 -2.70058e-21 -3.44677e-05)
(-0.00304817 -0.00659008 -2.67805e-20 0.00306925 -4.33916e-20 -2.10859e-05)
(-0.00527154 -0.00424612 -4.01328e-20 0.00528852 -4.54775e-20 -1.69764e-05)
(-0.005781 -0.00166661 8.81936e-20 0.00583318 8.60849e-20 -5.21765e-05)
(-0.00520542 0.000294562 -8.60559e-20 0.00529959 -6.10527e-20 -9.41699e-05)
(-0.00424348 0.00154926 4.56112e-20 0.00435257 1.88721e-20 -0.000109091)
(-0.00320785 0.00227729 -7.08868e-20 0.00330943 -2.17307e-20 -0.000101588)
(-0.00219665 0.00258548 3.05201e-22 0.00228972 -5.34105e-21 -9.30667e-05)
(-0.0013139 0.00253882 -5.60552e-20 0.00140545 -5.25064e-20 -9.15588e-05)
(-0.000663352 0.00226814 -3.28892e-20 0.000752244 -1.20886e-20 -8.88914e-05)
(-0.000262701 0.00194157 5.51012e-21 0.000338869 -1.64565e-21 -7.6168e-05)
(-4.16052e-05 0.00167171 1.31933e-20 9.6143e-05 7.31463e-21 -5.45378e-05)
(8.60847e-05 0.0014793 -2.92129e-20 -5.52173e-05 7.734e-21 -3.08674e-05)
(0.000168567 0.0013254 5.99507e-20 -0.000159763 6.97095e-22 -8.80427e-06)
(0.000224387 0.00119836 8.44556e-21 -0.000232539 7.88836e-21 8.15247e-06)
(0.000259411 0.00106993 9.27171e-21 -0.000274761 -6.85977e-21 1.535e-05)
(0.000276366 0.0009354 -9.49426e-21 -0.000286621 9.02528e-23 1.02558e-05)
(0.000281322 0.000807871 7.46081e-22 -0.000280967 -2.43409e-21 -3.55434e-07)
(0.000304056 0.000752226 2.14109e-22 -0.000297044 8.24431e-22 -7.01213e-06)
(0.000332835 0.00068621 1.38221e-21 -0.00033115 -6.2217e-22 -1.68461e-06)
(0.000367101 0.000581131 -3.36595e-21 -0.000379914 -2.59965e-21 1.2813e-05)
(0.000456367 0.000468044 -1.31347e-23 -0.000484656 -1.2215e-21 2.82887e-05)
(0.00109447 0.000309318 -1.17038e-20 -0.00114821 9.13467e-21 5.37408e-05)
(0.00369797 -0.00301913 -2.0306e-19 -0.00363381 -6.81514e-20 -6.41602e-05)
(0.00752652 -0.0179052 8.45378e-20 -0.00671689 -5.69792e-20 -0.000809632)
(0.0127547 -0.0554344 -3.92814e-19 -0.0109537 -8.14178e-20 -0.00180096)
(0.0203602 -0.132619 -6.97429e-21 -0.0192751 -2.19372e-19 -0.00108507)
(0.0311529 -0.270273 -2.66609e-19 -0.034552 2.10535e-19 0.00339914)
(0.0442998 -0.491343 1.74009e-18 -0.0532399 5.60163e-19 0.00894003)
(0.0562679 -0.813322 -3.40686e-19 -0.0641426 1.23752e-19 0.0078747)
(0.0646138 -1.22756 5.10549e-19 -0.0617337 9.40082e-19 -0.00288016)
(0.0810253 -1.67067 -1.84829e-19 -0.0687077 -2.33363e-19 -0.0123176)
(0.127752 -2.03084 -6.94352e-18 -0.118862 -2.20428e-21 -0.00888988)
(0.193758 -2.25432 8.46821e-19 -0.194021 -3.20075e-19 0.000262699)
(0.198882 -2.44371 -2.65839e-19 -0.186292 -3.39956e-19 -0.0125898)
(0.0654665 -2.72208 -8.56842e-18 -0.0114875 4.29758e-19 -0.0539789)
(-0.175414 -2.96131 6.1434e-19 0.242601 1.50001e-18 -0.0671872)
(-0.414767 -2.90605 -9.60914e-21 0.405466 4.9502e-19 0.00930088)
(-0.334727 -2.52669 -5.79997e-18 0.293903 1.02642e-18 0.0408243)
(-0.322607 -2.49083 -5.23677e-18 0.162921 1.22827e-18 0.159686)
(0.00290823 -0.00408913 -5.2146e-21 -0.00293441 -2.88202e-21 2.61769e-05)
(0.000824884 -0.00511511 2.76648e-20 -0.000803753 1.84041e-20 -2.1131e-05)
(-0.00146574 -0.00508424 -2.78401e-20 0.00148282 -1.50199e-20 -1.70862e-05)
(-0.00335736 -0.00395344 -5.42051e-21 0.00336136 7.25527e-21 -4.00464e-06)
(-0.00431759 -0.00222359 7.90375e-21 0.00431769 -6.1227e-21 -9.48682e-08)
(-0.00436372 -0.000545663 2.58609e-20 0.00436163 2.36332e-20 2.08457e-06)
(-0.00384733 0.000743667 -2.44468e-20 0.00383056 -2.75132e-20 1.67615e-05)
(-0.00307628 0.00160361 6.86083e-20 0.00303278 3.87404e-20 4.35011e-05)
(-0.00222169 0.00207796 2.58892e-20 0.00215163 4.41862e-21 7.0058e-05)
(-0.00140701 0.00221385 -3.65467e-20 0.00132158 6.27846e-21 8.54375e-05)
(-0.000745268 0.0020968 3.13314e-20 0.000658234 6.3261e-21 8.70335e-05)
(-0.000291008 0.00185384 -2.9221e-20 0.000211229 -7.68847e-21 7.97786e-05)
(-1.64366e-05 0.00159725 2.86382e-20 -5.34103e-05 1.59496e-20 6.98469e-05)
(0.000146624 0.00138203 -6.09928e-21 -0.000206588 -5.15254e-21 5.99635e-05)
(0.000253855 0.00121571 -4.75699e-20 -0.000306186 -2.55164e-20 5.23315e-05)
(0.000331582 0.00107957 1.489e-21 -0.00037918 8.75089e-21 4.75979e-05)
(0.000392556 0.000961769 -2.09721e-20 -0.000435383 -2.46114e-21 4.28268e-05)
(0.000439754 0.000847578 9.93972e-21 -0.000470664 2.66808e-21 3.09104e-05)
(0.000468822 0.000731672 -1.82942e-20 -0.000478973 -3.5346e-21 1.01505e-05)
(0.000465455 0.000612219 5.19756e-21 -0.000455251 -2.24966e-21 -1.0204e-05)
(0.000435529 0.000510457 1.17437e-21 -0.000420484 3.34779e-21 -1.50452e-05)
(0.000405051 0.000446665 -3.25137e-21 -0.000400606 -4.79574e-22 -4.44484e-06)
(0.000365622 0.000390995 -4.81765e-21 -0.000375659 -7.74992e-22 1.00373e-05)
(0.00036854 0.000376921 7.84758e-23 -0.000386499 5.48641e-22 1.79595e-05)
(0.000434379 0.000392131 -5.2655e-21 -0.000447184 3.01089e-21 1.28049e-05)
(0.000340225 0.000227348 4.77414e-21 -0.000330506 7.44443e-24 -9.7189e-06)
(0.000323482 9.68183e-05 -2.66124e-21 -0.000296048 5.88266e-22 -2.74332e-05)
(0.000313107 -7.49496e-05 -6.74707e-21 -0.000287763 2.23985e-22 -2.53443e-05)
(0.00165259 -0.00172611 3.38098e-21 -0.00167198 5.64703e-21 1.93898e-05)
(0.00627776 -0.014342 2.02464e-19 -0.00708063 -2.35325e-20 0.000802867)
(0.013597 -0.0556683 3.28474e-19 -0.0157129 -6.32059e-20 0.00211589)
(0.026594 -0.163624 1.00728e-18 -0.0281091 -7.74984e-20 0.00151513)
(0.0526893 -0.379265 -1.45374e-18 -0.0496552 7.70819e-20 -0.00303417)
(0.103073 -0.723276 -3.92173e-18 -0.0940731 4.77377e-19 -0.00900017)
(0.16762 -1.18639 -5.07595e-18 -0.154888 8.83343e-20 -0.0127319)
(0.194987 -1.73599 6.33251e-18 -0.176166 -2.72577e-20 -0.0188204)
(0.135492 -2.31224 6.47534e-18 -0.103912 3.40211e-19 -0.0315797)
(0.000871944 -2.77614 8.57059e-18 0.0262136 -1.92213e-19 -0.0270855)
(-0.144521 -2.91708 8.65213e-18 0.108334 -7.19639e-19 0.0361871)
(-0.0358013 -2.71037 -1.55048e-19 -0.0239702 4.96834e-19 0.0597714)
(-0.0679085 -2.67079 -7.55101e-18 -0.0825981 1.48799e-18 0.150507)
(0.00201854 -0.00284707 -1.8675e-21 -0.00203974 -1.11212e-21 2.11982e-05)
(0.00077704 -0.00353563 -1.68245e-20 -0.000770908 -1.09301e-20 -6.13157e-06)
(-0.000625349 -0.00372593 1.86208e-20 0.000631186 1.47127e-20 -5.83662e-06)
(-0.00199478 -0.00329014 2.25424e-20 0.00199613 1.55532e-20 -1.3541e-06)
(-0.0029795 -0.00231546 4.33564e-20 0.00297985 2.1282e-20 -3.43886e-07)
(-0.00339458 -0.00112422 -4.74917e-20 0.003399 -3.62967e-20 -4.42683e-06)
(-0.00331076 -1.88802e-05 -7.57563e-20 0.00331778 -3.04139e-20 -7.01824e-06)
(-0.00290002 0.000848334 -4.29335e-20 0.00290434 -2.54578e-20 -4.3229e-06)
(-0.00231282 0.00143209 7.51388e-21 0.00231263 3.81422e-21 1.85308e-07)
(-0.00167112 0.00173051 3.90153e-20 0.00167085 2.53919e-20 2.68816e-07)
(-0.00108287 0.00178375 -7.34767e-20 0.00108952 -2.81332e-20 -6.643e-06)
(-0.000620188 0.00167452 1.05258e-20 0.000636692 6.47449e-21 -1.65036e-05)
(-0.000296928 0.00149656 6.31882e-20 0.000321358 6.2158e-21 -2.44299e-05)
(-8.13526e-05 0.0013153 -4.80217e-20 0.000110852 -1.14241e-20 -2.94993e-05)
(6.67007e-05 0.00115632 -1.30033e-20 -3.47052e-05 7.73391e-21 -3.19955e-05)
(0.000174939 0.00102318 5.84238e-20 -0.000143429 8.7e-21 -3.15091e-05)
(0.000261266 0.000910448 1.28733e-20 -0.000232929 -3.93068e-22 -2.83368e-05)
(0.000337162 0.000805697 -1.01658e-20 -0.000310755 1.30019e-21 -2.64065e-05)
(0.0004064 0.000697136 -8.37343e-21 -0.000376109 1.67809e-21 -3.02911e-05)
(0.000465577 0.000583081 -1.5518e-20 -0.000426661 -1.20236e-21 -3.89159e-05)
(0.000502782 0.000467215 2.67553e-20 -0.000461272 1.31007e-21 -4.15098e-05)
(0.000515828 0.000370558 -8.50103e-21 -0.000486942 -1.23766e-22 -2.88864e-05)
(0.000505838 0.00029959 -5.52693e-21 -0.000501529 8.12962e-22 -4.30924e-06)
(0.00046866 0.000239646 5.66543e-23 -0.000485833 1.20694e-22 1.71727e-05)
(0.000424934 0.000184282 -4.48718e-21 -0.000446292 -5.27562e-22 2.1358e-05)
(0.00039527 0.000133725 4.2442e-21 -0.000401948 2.35571e-23 6.67807e-06)
(0.000342033 8.21508e-05 -3.88958e-21 -0.000325946 2.53723e-22 -1.60875e-05)
(0.000320539 5.76467e-05 4.64225e-22 -0.000288558 4.13867e-22 -3.19804e-05)
(0.000304012 5.30885e-05 7.39273e-21 -0.000276506 -5.66892e-22 -2.75056e-05)
(0.000593379 7.88264e-05 2.1598e-21 -0.000591016 -1.96355e-21 -2.36336e-06)
(0.000394185 -8.22164e-05 -2.96434e-20 -0.000434459 9.60649e-22 4.02741e-05)
(0.0010227 -0.00120141 -2.18489e-20 -0.00114991 -2.1711e-21 0.000127209)
(0.00411035 -0.0110796 9.79325e-20 -0.00426693 4.2268e-21 0.00015659)
(0.0132449 -0.0545379 6.28436e-19 -0.0125678 3.46819e-22 -0.00067706)
(0.0348982 -0.184729 3.73806e-20 -0.0318654 6.27388e-20 -0.00303274)
(0.0712231 -0.480183 3.43774e-19 -0.0634954 -5.15932e-20 -0.00772768)
(0.108076 -0.962831 -3.22612e-20 -0.0939785 -1.37111e-19 -0.0140973)
(0.126794 -1.52623 9.12879e-19 -0.11599 -3.55875e-19 -0.0108042)
(0.117014 -1.91948 -5.31393e-18 -0.148078 -2.0374e-20 0.0310638)
(0.234338 -1.95399 2.13433e-19 -0.282309 -7.08386e-21 0.0479708)
(0.207914 -2.04437 4.65768e-18 -0.316409 -6.49827e-19 0.108494)
(0.0014064 -0.00201199 1.43864e-21 -0.00142072 8.34401e-22 1.43191e-05)
(0.000635057 -0.00246404 1.48322e-22 -0.00063241 2.87059e-22 -2.64753e-06)
(-0.000223504 -0.00266555 2.94305e-20 0.000226211 1.48561e-20 -2.70692e-06)
(-0.00113413 -0.00254432 1.18232e-21 0.00113556 -1.54762e-21 -1.43004e-06)
(-0.00193137 -0.00206365 2.95234e-21 0.0019328 -3.06074e-21 -1.4267e-06)
(-0.00244708 -0.00132653 1.14481e-21 0.00245137 7.46885e-21 -4.28588e-06)
(-0.00262205 -0.000507871 3.29103e-20 0.00262982 2.31564e-20 -7.77215e-06)
(-0.00250022 0.000243647 -2.60687e-21 0.00250826 -1.56418e-21 -8.03255e-06)
(-0.00216607 0.000839111 1.03858e-21 0.00217018 1.22986e-20 -4.1171e-06)
(-0.00171201 0.0012353 7.70331e-20 0.00171104 2.00937e-20 9.71385e-07)
(-0.00123028 0.00142898 7.51067e-21 0.00122644 7.69431e-21 3.84523e-06)
(-0.000797492 0.00145722 -5.58757e-20 0.000793579 -1.36578e-20 3.9133e-06)
(-0.0004555 0.00138238 -9.52716e-21 0.00045305 -1.47477e-20 2.4492e-06)
(-0.00020532 0.00126396 1.45073e-20 0.000205557 1.38879e-20 -2.3702e-07)
(-2.6004e-05 0.0011378 -1.70415e-20 2.95864e-05 -7.37021e-21 -3.58236e-06)
(0.00010481 0.00101913 -1.48239e-20 -9.90025e-05 -9.56038e-21 -5.80772e-06)
(0.000204867 0.000912085 -2.38963e-20 -0.000200088 -3.37084e-21 -4.77891e-06)
(0.000288024 0.000812785 3.3653e-20 -0.000286886 6.04016e-21 -1.13816e-06)
(0.000362233 0.00071212 -8.34889e-21 -0.000363259 -7.08706e-22 1.02666e-06)
(0.000427533 0.000604233 2.73438e-22 -0.000425889 2.85823e-21 -1.64444e-06)
(0.000479078 0.000493072 -1.12506e-21 -0.000472174 -6.14828e-21 -6.90421e-06)
(0.0005116 0.000391289 2.64856e-21 -0.000504574 3.31888e-21 -7.02636e-06)
(0.000529097 0.000312382 -2.6423e-21 -0.000532006 5.97883e-22 2.9085e-06)
(0.000538455 0.000252984 -4.95276e-22 -0.000557466 -4.34384e-23 1.90111e-05)
(0.000532887 0.000192026 -1.47763e-20 -0.000561878 7.15518e-22 2.8991e-05)
(0.000525483 0.000120582 1.06046e-20 -0.000546614 -9.28393e-23 2.11312e-05)
(0.000501661 3.86464e-05 -6.46946e-22 -0.000497138 -2.01224e-22 -4.52319e-06)
(0.0004397 -2.74765e-05 -4.24468e-21 -0.000409044 4.54292e-22 -3.06553e-05)
(0.000366975 -5.02494e-05 -7.01505e-21 -0.000329909 -7.6093e-22 -3.70654e-05)
(0.000282284 -3.10246e-05 -2.47189e-21 -0.000263233 3.11972e-22 -1.90511e-05)
(0.000243469 -3.39825e-06 8.44213e-21 -0.000249155 5.51644e-22 5.68601e-06)
(0.000221905 5.03299e-07 -3.00982e-21 -0.000244629 5.56405e-22 2.27239e-05)
(0.000251759 -8.02818e-05 -4.76404e-23 -0.000278222 -4.65323e-23 2.64635e-05)
(0.000992278 -0.00143738 -3.62606e-20 -0.00102853 -2.02012e-21 3.62567e-05)
(0.000117343 -0.000488424 1.13175e-20 -0.000108902 -9.50029e-24 -8.4414e-06)
(0.00276832 -0.0183509 -2.21095e-20 -0.00235896 -2.12856e-21 -0.000409353)
(0.016896 -0.103148 1.09442e-19 -0.0148041 1.40674e-20 -0.00209192)
(0.0599652 -0.302071 -4.00853e-18 -0.0563907 4.90814e-20 -0.00357455)
(0.120402 -0.544964 -1.27151e-19 -0.128641 8.01865e-20 0.00823907)
(0.201416 -0.633085 7.304e-21 -0.215034 8.4087e-22 0.0136178)
(0.205634 -0.768707 3.08512e-18 -0.24789 -1.4131e-19 0.0422558)
(0.000977901 -0.00143555 -4.63515e-21 -0.000987862 -2.23256e-21 9.96129e-06)
(0.00048143 -0.00172989 4.73596e-21 -0.000481045 2.17527e-21 -3.84654e-07)
(-5.46527e-05 -0.00188619 3.68824e-22 5.51185e-05 -1.96736e-21 -4.65802e-07)
(-0.000638337 -0.00187954 -2.30278e-20 0.00063834 -1.22249e-20 -2.69331e-09)
(-0.00120803 -0.00166646 -1.1926e-21 0.00120793 2.45203e-21 9.43587e-08)
(-0.00166626 -0.00125763 2.58767e-20 0.00166754 1.08082e-20 -1.27092e-06)
(-0.00193812 -0.000723123 -1.16234e-21 0.0019419 -7.65043e-21 -3.77498e-06)
(-0.00200122 -0.000156342 -5.02197e-20 0.00200726 -1.59721e-20 -6.03649e-06)
(-0.00187822 0.000360232 8.32642e-20 0.00188502 2.93261e-20 -6.8023e-06)
(-0.00161761 0.000767773 -2.63338e-20 0.00162386 -2.36568e-20 -6.25416e-06)
(-0.00128154 0.00103674 3.24125e-20 0.00128773 9.20214e-21 -6.19565e-06)
(-0.000932484 0.00116878 3.41454e-20 0.00093989 1.23069e-20 -7.40597e-06)
(-0.00061844 0.0011919 -5.26323e-20 0.000627584 -1.20049e-20 -9.14339e-06)
(-0.000361276 0.00114651 3.86656e-20 0.000372317 3.76787e-21 -1.10413e-05)
(-0.000160411 0.00106658 -5.05376e-20 0.000172858 -4.80721e-21 -1.24466e-05)
(-5.57793e-06 0.000973323 1.52621e-20 1.79066e-05 7.49971e-21 -1.23287e-05)
(0.000114523 0.000878552 1.00766e-20 -0.000105014 1.87276e-21 -9.50893e-06)
(0.000210655 0.000787029 -9.1991e-22 -0.000206596 1.40727e-21 -4.05906e-06)
(0.000291695 0.000696884 9.12741e-24 -0.000292901 -6.20412e-23 1.20549e-06)
(0.000361208 0.00060268 -9.13413e-22 -0.000363574 -1.49595e-21 2.3661e-06)
(0.000416297 0.000503483 -1.45051e-20 -0.000414447 7.2449e-22 -1.85091e-06)
(0.000451976 0.000408357 1.77444e-20 -0.000444766 -2.68391e-22 -7.20992e-06)
(0.000468404 0.000328927 -3.1065e-21 -0.000460761 1.10442e-21 -7.64385e-06)
(0.000473487 0.000268351 1.12893e-22 -0.000472666 -1.96631e-22 -8.20545e-07)
(0.000477761 0.000217973 2.32704e-22 -0.000486933 1.22978e-21 9.17255e-06)
(0.000486632 0.000161138 3.6345e-21 -0.000499761 9.34955e-23 1.31292e-05)
(0.000503235 8.71457e-05 -8.07313e-21 -0.000507524 -4.42922e-23 4.28956e-06)
(0.000509078 -2.31993e-06 8.17564e-21 -0.000494112 1.33947e-22 -1.49653e-05)
(0.000492224 -8.34526e-05 -7.94789e-21 -0.000461959 5.65753e-22 -3.02656e-05)
(0.000427598 -0.000121567 7.3885e-21 -0.000403657 -1.2746e-22 -2.39413e-05)
(0.000336298 -0.000108089 -3.0627e-21 -0.00033721 -6.22094e-22 9.11874e-07)
(0.00027542 -8.23995e-05 8.25844e-21 -0.00029826 -1.07122e-22 2.28406e-05)
(0.000213471 -6.67551e-05 4.31547e-21 -0.000238897 -1.82164e-22 2.54265e-05)
(0.000169527 -8.19509e-05 9.76942e-24 -0.000184685 3.53435e-22 1.5158e-05)
(9.90255e-05 -0.000105492 4.26989e-21 -9.84193e-05 -3.60424e-22 -6.06211e-07)
(7.52094e-05 -0.000204093 -8.18842e-21 -5.70991e-05 -1.01676e-22 -1.81104e-05)
(7.53146e-05 -0.000194199 9.89683e-21 -5.97457e-05 -1.0284e-22 -1.55689e-05)
(0.00514201 -0.00924362 2.29258e-19 -0.00472174 6.65848e-21 -0.000420272)
(0.0205481 -0.0365674 -3.94693e-20 -0.0210728 -3.02428e-21 0.000524783)
(0.0409206 -0.0632191 4.00826e-20 -0.0421317 3.08633e-23 0.00121115)
(0.0449806 -0.0953433 -5.67079e-19 -0.0514205 1.97675e-20 0.00643989)
(0.000677559 -0.00103114 5.54374e-23 -0.000684489 3.24502e-22 6.9293e-06)
(0.000349629 -0.00122292 -2.96249e-20 -0.000349995 -1.23951e-20 3.6586e-07)