/*--------------------------------*- C++ -*----------------------------------*\
| =========                 |                                                 |
| \\      /  F ield         | OpenFOAM: The Open Source CFD Toolbox           |
|  \\    /   O peration     | Version:  2312                                  |
|   \\  /    A nd           | Website:  www.openfoam.com                      |
|    \\/     M anipulation  |                                                 |
\*---------------------------------------------------------------------------*/
FoamFile
{
    version     2.0;
    format      ascii;
    arch        "LSB;label=32;scalar=64";
    class       volVectorField;
    location    "50";
    object      U;
}
// * * * * * * * * * * * * * * * * * * * * * * * * * * * * * * * * * * * * * //

dimensions      [0 1 -1 0 0 0 0];

internalField   nonuniform List<vector> 
11040
(
(3.01015 29.9713 3.60326e-19)
(10.9543 35.1037 -3.01269e-17)
(16.2492 30.8281 -3.5404e-17)
(17.4104 22.8483 2.65156e-18)
(15.8375 15.1449 0)
(13.2928 9.25452 3.76362e-18)
(11.4221 5.37149 6.81996e-17)
(11.0389 3.01388 1.87974e-16)
(12.0123 1.77697 -8.22788e-17)
(13.51 1.44112 -7.51931e-17)
(14.9323 1.5592 -1.15185e-16)
(16.1712 1.76164 1.53898e-19)
(17.1899 1.85222 4.25595e-17)
(17.9525 1.78624 3.58599e-17)
(18.4666 1.59131 1.09765e-19)
(18.7637 1.31011 2.06325e-18)
(18.8754 0.978958 -9.30688e-21)
(18.7925 0.626996 0)
(18.5105 0.271793 4.58202e-21)
(18.0715 -0.0773531 1.77214e-18)
(17.4841 -0.419605 -1.24964e-19)
(16.7903 -0.718814 -1.1522e-17)
(16.0834 -0.949985 5.68262e-19)
(15.3448 -1.11939 -1.84363e-17)
(14.4982 -1.23123 1.67316e-17)
(13.5559 -1.29626 4.75856e-19)
(12.5581 -1.31277 1.39171e-17)
(11.5588 -1.29248 0)
(10.6067 -1.27016 0)
(9.64429 -1.2557 -1.08447e-17)
(8.58569 -1.22183 -2.1259e-17)
(7.34759 -1.12898 0)
(6.04124 -1.01021 -3.48149e-17)
(5.19932 -0.994498 0)
(5.19306 -1.12816 -1.26079e-17)
(5.21682 -1.05791 -1.23041e-17)
(3.90378 -0.39084 0)
(0.981358 0.515273 0)
(-1.12426 0.663075 3.59025e-20)
(0.488133 -0.276884 -2.96527e-20)
(-0.875769 -1.66 -2.88037e-18)
(10.2077 25.8284 -2.89536e-19)
(22.5049 26.8368 4.08166e-18)
(31.9349 24.2508 5.04858e-17)
(36.201 21.533 2.02232e-17)
(36.9536 19.0259 0)
(35.9489 16.4048 2.306e-17)
(34.2387 13.6579 2.48827e-17)
(32.4708 11.075 -3.08393e-17)
(30.8939 8.92126 2.837e-17)
(29.4765 7.25341 2.50196e-19)
(28.2098 5.98996 2.91417e-17)
(27.1234 4.97215 -4.89682e-17)
(26.2166 4.08354 -2.63389e-17)
(25.4726 3.28845 -1.94868e-17)
(24.8614 2.58126 7.98424e-18)
(24.3451 1.95917 5.00661e-18)
(23.8666 1.41458 6.95315e-18)
(23.3809 0.938703 -1.04891e-18)
(22.8536 0.507335 1.03152e-18)
(22.2438 0.0964329 -1.09552e-18)
(21.5248 -0.309518 3.35828e-18)
(20.7131 -0.66368 6.94805e-18)
(19.8719 -0.931038 -5.73498e-18)
(19.0111 -1.11691 -1.06543e-17)
(18.0896 -1.22833 -1.03254e-17)
(17.0973 -1.2848 9.40989e-18)
(16.0329 -1.308 0)
(14.9407 -1.32653 0)
(13.8577 -1.36136 6.45418e-18)
(12.7641 -1.3858 5.73147e-18)
(11.5772 -1.34852 5.57428e-18)
(10.1989 -1.22346 9.61334e-18)
(8.72276 -1.0848 8.28438e-18)
(7.61547 -1.06743 0)
(7.1233 -1.18627 -2.83629e-20)
(6.49629 -1.03101 6.02695e-18)
(4.37572 -0.139282 0)
(1.57714 0.666819 0)
(0.649038 0.464623 0)
(2.1657 -0.515458 0)
(2.2438 -1.35916 2.96522e-18)
(12.6708 22.6036 -1.08238e-19)
(19.6067 26.0205 1.39466e-17)
(26.034 26.1673 -1.9012e-17)
(30.8827 24.4572 -1.81938e-17)
(34.2983 22.1502 1.61944e-17)
(36.6656 19.7217 -1.36705e-18)
(38.1593 17.2225 -1.80884e-17)
(38.8586 14.7052 -4.43104e-18)
(38.9124 12.3268 4.66342e-18)
(38.537 10.2713 0)
(37.929 8.60715 0)
(37.2021 7.25369 3.27575e-17)
(36.3833 6.08764 0)
(35.444 5.02847 0)
(34.3697 4.04138 -7.30762e-18)
(33.1726 3.12348 -5.24733e-18)
(31.8786 2.28464 -1.71999e-18)
(30.5171 1.53722 -6.31228e-18)
(29.1238 0.87459 -2.97332e-18)
(27.7354 0.279477 1.491e-18)
(26.3667 -0.267535 -5.04522e-18)
(25.0625 -0.723001 -2.33952e-18)
(23.8748 -1.05165 3.2303e-18)
(22.7559 -1.26242 7.60836e-18)
(21.6227 -1.36991 7.88492e-18)
(20.451 -1.41305 -6.63423e-18)
(19.2278 -1.43692 0)
(17.9794 -1.47389 0)
(16.7397 -1.52867 -4.64555e-18)
(15.4879 -1.54826 4.20825e-18)
(14.1514 -1.47695 -7.554e-18)
(12.6582 -1.31608 7.43182e-20)
(11.1058 -1.17432 0)
(9.83327 -1.16365 -4.84098e-18)
(8.90086 -1.22576 4.09681e-18)
(7.6129 -0.942433 -1.65717e-20)
(5.31512 -0.118499 -6.0546e-20)
(3.13131 0.429847 -4.37783e-18)
(2.42549 0.102418 1.305e-20)
(3.42906 -0.865715 -2.19159e-18)
(3.45387 -1.85572 -1.169e-18)
(14.6801 19.781 1.29569e-20)
(19.6474 22.7315 -5.42415e-18)
(25.0854 23.3829 8.10057e-18)
(29.6221 22.1642 1.13448e-17)
(32.8509 20.1298 -1.48546e-17)
(35.12 17.9796 -1.83528e-17)
(36.7965 15.8777 3.49138e-18)
(37.9602 13.7944 0)
(38.576 11.7832 0)
(38.7012 9.99057 1.41803e-17)
(38.5187 8.50965 0)
(38.2201 7.3008 -1.33913e-17)
(37.9023 6.26184 0)
(37.5705 5.315 -1.19731e-17)
(37.191 4.42027 0)
(36.7252 3.56651 5.5446e-18)
(36.134 2.75586 7.7376e-18)
(35.378 1.99911 2.5927e-20)
(34.4275 1.29647 2.39356e-18)
(33.2717 0.638505 1.0255e-18)
(31.9103 0.00940996 9.26099e-19)
(30.4284 -0.544905 3.66366e-18)
(28.9526 -0.973053 0)
(27.5024 -1.26831 5.55636e-18)
(26.0546 -1.43869 7.77802e-19)
(24.5881 -1.5131 1.09316e-17)
(23.1027 -1.54693 -6.13542e-19)
(21.6225 -1.58802 3.97235e-18)
(20.1752 -1.64754 -3.5269e-18)
(18.7343 -1.66591 -6.36219e-18)
(17.2279 -1.58157 2.83504e-18)
(15.6001 -1.40714 -9.94067e-18)
(13.927 -1.2591 -1.15735e-19)
(12.4041 -1.21004 8.51598e-20)
(10.9943 -1.16259 -4.04521e-20)
(9.2659 -0.822587 6.64056e-20)
(7.05361 -0.183517 -3.96444e-20)
(5.16494 0.138754 -1.60975e-20)
(4.32752 -0.245709 2.64997e-20)
(4.74378 -1.18328 -8.38657e-20)
(4.52091 -2.07271 0)
(16.5903 17.4338 0)
(19.9699 19.8594 -7.95305e-19)
(23.9339 21.1382 -1.18308e-17)
(27.7992 21.001 -2.03809e-17)
(30.9568 19.8303 2.27971e-17)
(33.287 18.1504 -9.94526e-18)
(34.9744 16.2704 0)
(36.1572 14.3159 0)
(36.8652 12.3847 -1.1229e-17)
(37.1349 10.6016 -2.31347e-17)
(37.088 9.05932 -1.10771e-17)
(36.8842 7.75744 0)
(36.6335 6.63305 0)
(36.3748 5.6239 1.25901e-17)
(36.1074 4.68933 -2.46626e-18)
(35.8225 3.81027 9.14076e-18)
(35.5059 2.98133 -4.43865e-18)
(35.1364 2.21105 0)
(34.6933 1.5055 0)
(34.1607 0.85875 0)
(33.5192 0.247357 -1.64344e-18)
(32.7692 -0.307177 -2.98077e-18)
(31.9359 -0.768991 0)
(31.009 -1.12806 5.08756e-18)
(29.9493 -1.37196 -8.66991e-18)
(28.7326 -1.50341 -5.11011e-18)
(27.3667 -1.55857 -2.68271e-18)
(25.8877 -1.59283 -3.49526e-18)
(24.3455 -1.64578 2.70938e-18)
(22.748 -1.6818 4.85271e-18)
(21.0631 -1.63357 0)
(19.2718 -1.49038 3.88542e-18)
(17.4261 -1.33876 -1.13503e-19)
(15.6032 -1.22207 -5.69918e-20)
(13.7538 -1.0547 0)
(11.725 -0.697445 -1.75399e-18)
(9.57964 -0.25839 0)
(7.77414 -0.141543 2.37448e-18)
(6.68757 -0.569376 0)
(6.48769 -1.46459 -2.70796e-20)
(5.8813 -2.17809 -6.28472e-19)
(18.1103 15.507 0)
(20.5001 17.3908 0)
(23.3595 18.7494 3.57378e-18)
(26.4771 19.1789 9.24894e-18)
(29.3923 18.6714 -1.90509e-17)
(31.7972 17.5042 1.61402e-17)
(33.649 15.9623 -7.87529e-18)
(35.0024 14.2273 1.27542e-17)
(35.8919 12.4273 4.98256e-19)
(36.3512 10.695 1.39541e-17)
(36.4676 9.14537 9.18498e-18)
(36.3699 7.81699 0)
(36.1664 6.67638 -4.11804e-18)
(35.912 5.66854 8.12375e-18)
(35.6219 4.74781 -1.55632e-17)
(35.299 3.88679 -3.76355e-18)
(34.9408 3.0723 -3.51487e-18)
(34.5371 2.30812 3.53809e-18)
(34.0779 1.60581 -9.01252e-20)
(33.5634 0.969722 -2.44687e-19)
(33.0096 0.384045 -8.8204e-19)
(32.4527 -0.143331 1.22005e-18)
(31.9185 -0.598713 0)
(31.3915 -0.979238 1.01612e-18)
(30.8331 -1.26705 5.79841e-18)
(30.1921 -1.43961 -9.09539e-19)
(29.4362 -1.50572 2.25e-18)
(28.5626 -1.51317 1.00464e-19)
(27.5745 -1.52626 5.77478e-19)
(26.4386 -1.55502 -1.87884e-18)
(25.0898 -1.55096 1.94207e-19)
(23.4869 -1.47263 -1.99232e-19)
(21.6499 -1.34425 0)
(19.6178 -1.17757 2.02714e-18)
(17.4228 -0.92717 -1.54165e-19)
(15.153 -0.585448 3.85887e-21)
(12.9838 -0.321987 1.49648e-18)
(11.1311 -0.375747 -2.55267e-20)
(9.76534 -0.835652 -3.12782e-20)
(8.99841 -1.65981 1.25373e-18)
(7.87197 -2.22421 5.49974e-19)
(19.3996 13.9016 -1.12795e-19)
(21.1695 15.3374 1.83681e-19)
(23.2313 16.5513 1.13012e-18)
(25.6067 17.2439 0)
(28.0636 17.2512 0)
(30.3136 16.6327 -6.33825e-18)
(32.2031 15.5615 6.92045e-18)
(33.6899 14.2002 -1.33299e-17)
(34.7674 12.681 -6.93139e-18)
(35.4431 11.1322 6.93609e-18)
(35.7673 9.67047 -6.73078e-18)
(35.836 8.35775 6.74257e-18)
(35.7486 7.19538 -6.83031e-18)
(35.5702 6.15442 2.57725e-19)
(35.33 5.202 1.24848e-17)
(35.0393 4.31393 -2.3417e-19)
(34.7017 3.47411 5.7177e-18)
(34.311 2.6793 -2.69218e-18)
(33.8548 1.93927 5.36252e-18)
(33.3258 1.26639 -1.21436e-18)
(32.733 0.659269 -5.68514e-19)
(32.1243 0.126676 1.0305e-18)
(31.5486 -0.331772 1.90279e-18)
(31.0114 -0.72849 0)
(30.4971 -1.05133 1.53352e-18)
(29.9755 -1.26969 -1.53459e-18)
(29.4299 -1.36802 5.8223e-19)
(28.8753 -1.37182 1.56408e-18)
(28.3387 -1.34774 0)
(27.8074 -1.34397 -1.53041e-18)
(27.1993 -1.3486 -1.0254e-18)
(26.3889 -1.31177 -1.49331e-18)
(25.2551 -1.20142 1.00138e-18)
(23.7053 -1.0008 1.59349e-18)
(21.7409 -0.713217 1.21032e-18)
(19.5434 -0.425163 -9.30286e-19)
(17.3774 -0.315976 -1.07753e-18)
(15.4145 -0.505485 -1.16182e-18)
(13.7633 -0.984637 -1.2284e-18)
(12.5348 -1.71183 0)
(10.8494 -2.16974 2.79539e-19)
(20.4781 12.5481 -9.10198e-20)
(21.8392 13.6414 -5.01083e-20)
(23.3606 14.6383 -9.40252e-19)
(25.1311 15.3659 -2.1852e-18)
(27.0824 15.6606 -5.72893e-18)
(29.0319 15.4621 5.63452e-18)
(30.8138 14.8215 1.20277e-17)
(32.3296 13.8387 1.05196e-17)
(33.5278 12.6194 3.18508e-19)
(34.3843 11.2764 -1.05476e-17)
(34.9115 9.92324 1.60886e-17)
(35.167 8.64202 0)
(35.2281 7.46928 -1.56595e-17)
(35.1596 6.40592 1.04495e-17)
(35.0004 5.43451 4.87743e-18)
(34.771 4.53561 -1.45317e-17)
(34.4827 3.69198 -4.71689e-18)
(34.1373 2.8939 2.18227e-18)
(33.7267 2.14509 2.07737e-18)
(33.2401 1.45943 4.80592e-18)
(32.6769 0.848107 -7.31443e-18)
(32.0777 0.32789 1.90246e-18)
(31.493 -0.107103 1.60232e-18)
(30.9363 -0.483648 0)
(30.4011 -0.80552 1.31411e-18)
(29.8616 -1.0502 -1.13132e-18)
(29.2985 -1.19066 1.13312e-18)
(28.7252 -1.22551 2.8556e-20)
(28.1899 -1.1987 -1.53933e-18)
(27.7439 -1.16863 -3.06995e-19)
(27.3938 -1.15777 2.80484e-18)
(27.0726 -1.13263 7.15365e-19)
(26.659 -1.02934 -6.22675e-19)
(26.0169 -0.797983 -1.28827e-18)
(25.0339 -0.468746 -1.54817e-20)
(23.6957 -0.195774 -8.0519e-20)
(22.0984 -0.166929 0)
(20.3636 -0.431219 8.88575e-20)
(18.6209 -0.90224 8.08231e-19)
(17.0793 -1.51243 -5.38514e-21)
(14.9628 -1.8875 -1.90491e-19)
(21.392 11.3876 7.84543e-20)
(22.4719 12.2221 0)
(23.6302 13.008 -5.8893e-19)
(24.9538 13.6565 0)
(26.4522 14.0556 4.05255e-21)
(28.042 14.1184 -1.48636e-18)
(29.6052 13.8219 -6.71015e-18)
(31.0364 13.1981 0)
(32.2595 12.3107 8.81029e-19)
(33.2234 11.2417 -1.57513e-17)
(33.9086 10.0848 -4.53838e-18)
(34.3354 8.92144 1.20355e-17)
(34.5513 7.80573 4.23601e-18)
(34.6079 6.76211 -3.86935e-18)
(34.5457 5.79203 3.80108e-18)
(34.3913 4.88793 3.90129e-18)
(34.1625 4.03994 7.18614e-18)
(33.8694 3.23982 -8.86108e-18)
(33.5118 2.48685 1.74832e-18)
(33.0817 1.79073 0)
(32.5741 1.16637 3.64224e-19)
(32.0206 0.640171 -6.89835e-19)
(31.4667 0.211014 5.15228e-19)
(30.9309 -0.153764 -2.07172e-19)
(30.4165 -0.471909 3.20827e-18)
(29.9041 -0.736044 -2.05906e-18)
(29.368 -0.921388 0)
(28.8017 -1.00948 7.23357e-19)
(28.2323 -1.01466 1.17586e-18)
(27.7124 -0.981866 4.91644e-19)
(27.2897 -0.953984 -1.38503e-18)
(26.9666 -0.935842 4.39033e-19)
(26.6974 -0.874766 0)
(26.4428 -0.687547 6.17002e-19)
(26.1724 -0.365633 -8.51414e-19)
(25.7985 -0.0625713 -1.92817e-20)
(25.1803 0.0158729 -7.97273e-20)
(24.2299 -0.182402 1.04826e-18)
(22.9487 -0.539025 3.2626e-20)
(21.5491 -0.942899 0)
(19.4573 -1.2171 -8.83073e-20)
(22.1656 10.3816 -1.44398e-19)
(23.041 11.0211 1.50404e-19)
(23.9489 11.6296 1.74791e-19)
(24.956 12.1634 1.57429e-18)
(26.0954 12.5588 8.74566e-19)
(27.3429 12.7457 -2.45568e-18)
(28.6361 12.6771 0)
(29.897 12.3403 9.15275e-18)
(31.0516 11.7544 -1.50865e-17)
(32.0384 10.965 5.69084e-18)
(32.8167 10.0364 -5.63428e-18)
(33.377 9.03535 -9.51733e-18)
(33.7362 8.01876 1.23812e-17)
(33.9244 7.02705 -9.09673e-18)
(33.9742 6.08049 1.1931e-17)
(33.9121 5.1868 -3.15603e-18)
(33.7585 4.34682 -2.98063e-18)
(33.5286 3.55749 0)
(33.2297 2.81619 0)
(32.8596 2.12591 0)
(32.4126 1.49771 4.2501e-18)
(31.9126 0.962615 -4.59282e-18)
(31.3974 0.528059 5.15544e-19)
(30.8879 0.165988 0)
(30.3973 -0.145616 0)
(29.9188 -0.412383 -7.24222e-19)
(29.4314 -0.620571 1.51466e-18)
(28.9192 -0.748438 -1.26723e-18)
(28.3884 -0.789485 1.1034e-18)
(27.871 -0.764741 -9.39878e-19)
(27.4111 -0.71449 3.71732e-19)
(27.0308 -0.67287 -1.06951e-18)
(26.7083 -0.635158 -6.24022e-19)
(26.4233 -0.540441 2.43071e-20)
(26.2118 -0.332855 -4.55262e-19)
(26.0967 -0.0760461 3.45108e-19)
(25.9708 0.0703066 -6.21245e-19)
(25.6739 0.0330162 -4.16953e-19)
(25.0656 -0.0982946 1.52285e-20)
(24.2684 -0.208756 -1.58437e-20)
(22.8486 -0.299534 6.20396e-20)
(22.8197 9.50213 0)
(23.541 9.99334 -2.26683e-19)
(24.27 10.4599 2.7497e-19)
(25.0539 10.8812 1.96908e-18)
(25.9265 11.2241 -3.95072e-18)
(26.8895 11.4434 3.10443e-18)
(27.9188 11.4964 2.20559e-18)
(28.9696 11.3546 -3.50173e-18)
(29.9878 11.0094 1.06164e-17)
(30.9179 10.4746 8.28176e-18)
(31.7133 9.78531 4.84604e-18)
(32.3475 8.98577 0)
(32.8137 8.12283 0)
(33.1197 7.2387 9.39177e-18)
(33.283 6.3636 -1.18129e-17)
(33.3234 5.51654 -2.40704e-18)
(33.259 4.70777 6.70735e-18)
(33.1054 3.94132 -1.53156e-17)
(32.8737 3.2172 2.26002e-18)
(32.5678 2.5361 2.91519e-18)
(32.1856 1.90482 -2.98211e-18)
(31.7458 1.35571 3.38743e-18)
(31.2787 0.904523 -3.41787e-18)
(30.8032 0.532982 3.72285e-19)
(30.3382 0.222685 6.86195e-19)
(29.8884 -0.0385501 -3.08755e-18)
(29.4434 -0.249584 2.36727e-19)
(28.9876 -0.397451 1.88752e-19)
(28.5161 -0.470042 7.29139e-20)
(28.0432 -0.470632 7.77735e-19)
(27.6003 -0.422747 6.88725e-19)
(27.2161 -0.361068 5.81056e-19)
(26.8874 -0.309603 5.19519e-19)
(26.5839 -0.25668 -1.14481e-18)
(26.3003 -0.160811 6.00606e-19)
(26.0721 -0.0168368 3.04574e-19)
(25.8907 0.109047 7.22798e-19)
(25.6961 0.162705 0)
(25.382 0.191043 2.70658e-19)
(25.0493 0.310462 -1.5255e-20)
(24.4231 0.458042 3.12096e-21)
(23.3704 8.7294 0)
(23.9718 9.10703 3.32052e-20)
(24.5678 9.46294 0)
(25.1913 9.78768 0)
(25.8697 10.0655 -9.45443e-19)
(26.6131 10.2701 0)
(27.4164 10.3714 -4.73416e-18)
(28.2597 10.3422 0)
(29.1108 10.1639 -1.58329e-17)
(29.93 9.8315 2.14654e-17)
(30.6764 9.3562 -4.50285e-18)
(31.3195 8.76067 -1.58152e-17)
(31.8399 8.07485 -6.99004e-18)
(32.2287 7.3323 -1.80418e-19)
(32.4882 6.56341 1.03237e-17)
(32.6267 5.79184 -6.99233e-18)
(32.6557 5.0347 1.04537e-17)
(32.587 4.303 1.41893e-19)
(32.4315 3.60273 -4.71598e-18)
(32.1965 2.93777 7.24331e-18)
(31.8844 2.31417 -4.41625e-20)
(31.5122 1.76327 -3.40547e-19)
(31.105 1.30485 -5.01027e-18)
(30.6784 0.92831 4.73796e-18)
(30.2512 0.621645 1.29688e-18)
(29.835 0.371457 -2.1482e-18)
(29.4286 0.170406 0)
(29.0222 0.0199787 2.91397e-18)
(28.6073 -0.0724586 -3.06891e-18)
(28.1864 -0.103814 1.84319e-19)
(27.7766 -0.082887 6.84348e-19)
(27.403 -0.0315081 -5.09123e-19)
(27.0791 0.02568 0)
(26.792 0.0754896 3.89219e-19)
(26.5154 0.128501 2.60998e-20)
(26.2417 0.201084 1.85205e-19)
(25.9681 0.284895 -4.1943e-19)
(25.6899 0.355497 9.80309e-20)
(25.3622 0.418312 -2.38937e-19)
(25.0776 0.571265 2.18822e-20)
(24.8006 0.824315 0)
(23.832 8.04841 7.37772e-20)
(24.3378 8.33858 1.30617e-19)
(24.8316 8.60867 0)
(25.3364 8.85516 0)
(25.8731 9.07131 1.00586e-18)
(26.4523 9.2426 1.45032e-18)
(27.0768 9.35015 9.09581e-18)
(27.7401 9.37378 -2.34283e-18)
(28.4266 9.29541 0)
(29.112 9.10303 -2.11968e-18)
(29.7672 8.79451 8.96541e-19)
(30.3659 8.37651 2.59877e-18)
(30.8864 7.86368 0)
(31.3118 7.27681 1.2801e-17)
(31.6333 6.63895 -1.06521e-17)
(31.8488 5.97196 1.0529e-17)
(31.9611 5.29479 -1.18592e-17)
(31.976 4.62253 -1.08939e-18)
(31.9006 3.9668 0)
(31.7424 3.33631 0)
(31.5062 2.73938 -6.00374e-19)
(31.2084 2.20608 2.82892e-19)
(30.8708 1.75615 2.5021e-19)
(30.5061 1.38322 0)
(30.1306 1.07948 -3.6547e-18)
(29.7554 0.83561 -3.43987e-18)
(29.3874 0.640216 2.91141e-18)
(29.0239 0.487597 -3.26861e-18)
(28.6582 0.378653 0)
(28.2877 0.316255 4.97832e-19)
(27.9185 0.298915 -1.97431e-18)
(27.5659 0.31704 2.56548e-18)
(27.246 0.355207 -4.25807e-19)
(26.9635 0.398408 0)
(26.7046 0.441239 2.60948e-19)
(26.45 0.4908 -1.99894e-20)
(26.1838 0.557048 1.93574e-19)
(25.9027 0.641043 0)
(25.5892 0.728598 4.31317e-20)
(25.2696 0.846708 -5.53509e-20)
(25.0005 1.04222 1.23304e-20)
(24.2168 7.44784 -3.48119e-19)
(24.6444 7.67018 2.8466e-19)
(25.0574 7.87388 0)
(25.4718 8.0586 -4.2332e-19)
(25.903 8.2222 -8.4248e-19)
(26.3604 8.35681 -1.21401e-18)
(26.8485 8.45113 -1.60766e-18)
(27.367 8.49189 -2.01901e-18)
(27.9096 8.46528 9.29194e-18)
(28.4637 8.3593 1.44411e-18)
(29.0111 8.16673 -1.01024e-17)
(29.5332 7.88573 1.62458e-17)
(30.0119 7.52004 1.06515e-18)
(30.4297 7.07964 -1.62789e-17)
(30.773 6.57817 -2.07723e-18)
(31.0332 6.03171 0)
(31.2062 5.4566 -1.81462e-18)
(31.2916 4.86841 3.87806e-18)
(31.2917 4.281 -9.29033e-18)
(31.2109 3.70619 2.28935e-19)
(31.0538 3.15466 7.22958e-18)
(30.834 2.65517 5.76899e-18)
(30.5707 2.22624 -5.98174e-19)
(30.2749 1.86289 -6.05762e-18)
(29.9591 1.56112 0)
(29.6347 1.3138 0)
(29.3093 1.11259 0)
(28.9855 0.951123 0)
(28.662 0.82629 0)
(28.3366 0.738575 4.60549e-19)
(28.0108 0.688218 1.98528e-19)
(27.6915 0.672573 -1.36185e-18)
(27.3901 0.684336 6.5587e-19)
(27.1156 0.714061 -2.32669e-19)
(26.8676 0.75388 6.95346e-19)
(26.6356 0.802401 -1.00295e-18)
(26.4051 0.866181 2.15427e-19)
(26.1669 0.955913 1.30382e-19)
(25.9185 1.07141 -1.90507e-19)
(25.658 1.20408 -4.45097e-20)
(25.4028 1.35885 6.01548e-20)
(24.5353 6.91838 0)
(24.8982 7.08784 -5.85763e-20)
(25.2458 7.24019 3.13839e-19)
(25.5894 7.37685 3.54836e-19)
(25.9404 7.49787 -1.00197e-18)
(26.3062 7.59904 1.3892e-18)
(26.6914 7.67372 -6.13924e-18)
(27.0977 7.71361 2.13278e-18)
(27.5234 7.70928 -6.26251e-18)
(27.9626 7.65133 6.26215e-18)
(28.4051 7.53216 2.18712e-18)
(28.8395 7.34695 -1.86213e-17)
(29.2528 7.09403 8.26317e-18)
(29.6312 6.77599 1.65707e-18)
(29.9615 6.39943 1.04834e-17)
(30.2329 5.97377 0)
(30.4379 5.51055 1.53831e-18)
(30.5717 5.02225 -2.85053e-18)
(30.6323 4.52132 1.51093e-18)
(30.62 4.01957 0)
(30.5368 3.52771 0)
(30.3922 3.07347 -4.34309e-18)
(30.201 2.67388 5.61203e-18)
(29.9737 2.32598 1.2586e-19)
(29.7204 2.02818 0)
(29.4504 1.77707 -3.92217e-18)
(29.1721 1.56794 7.55695e-18)
(28.8904 1.39645 -3.62558e-18)
(28.608 1.25944 1.60863e-18)
(28.3257 1.15574 -1.51169e-18)
(28.0446 1.08531 -1.64224e-19)
(27.7679 1.04753 1.36031e-18)
(27.502 1.03967 -2.55763e-19)
(27.2535 1.05639 -1.15663e-18)
(27.0267 1.09216 -3.61688e-19)
(26.8196 1.14268 6.77133e-19)
(26.6248 1.20812 -3.15614e-19)
(26.4329 1.29269 2.34543e-19)
(26.2428 1.40387 -2.01732e-20)
(26.0577 1.54005 1.27746e-19)
(25.8705 1.68929 -8.57142e-20)
(24.7966 6.45218 2.22185e-19)
(25.105 6.58027 -2.18913e-19)
(25.3989 6.693 -4.28169e-19)
(25.6858 6.79267 0)
(25.9744 6.88022 8.37774e-19)
(26.2703 6.95342 -1.16075e-18)
(26.5775 7.00838 2.74647e-18)
(26.8981 7.03999 1.84837e-18)
(27.2323 7.04214 0)
(27.5776 7.00825 0)
(27.9286 6.93223 1.22611e-17)
(28.2789 6.80925 -1.13794e-17)
(28.6206 6.63594 0)
(28.9438 6.41145 -3.57574e-18)
(29.2384 6.13747 -1.53987e-17)
(29.4947 5.81856 1.34559e-17)
(29.7043 5.46116 -8.11916e-18)
(29.8607 5.0733 9.13212e-18)
(29.9591 4.66409 0)
(29.9969 4.24296 0)
(29.9729 3.81902 0)
(29.8914 3.4176 0)
(29.7636 3.05563 6.66685e-18)
(29.5989 2.73262 -7.38498e-18)
(29.4056 2.44927 0)
(29.1922 2.20505 0)
(28.965 1.99923 2.76546e-18)
(28.7317 1.82859 -2.77023e-18)
(28.4963 1.69084 -2.42732e-18)
(28.2615 1.58454 2.3107e-18)
(28.0291 1.50906 6.25986e-20)
(27.8014 1.46315 0)
(27.5815 1.44539 -1.03385e-19)
(27.373 1.45205 6.9948e-19)
(27.1796 1.47942 -7.13329e-20)
(27.0025 1.52311 -5.47301e-19)
(26.8397 1.5811 0)
(26.6856 1.65175 0)
(26.5368 1.73826 -1.98528e-19)
(26.3967 1.84241 1.06905e-19)
(26.2602 1.96029 0)
(25.0085 6.04163 1.0798e-19)
(25.2708 6.13745 0)
(25.5195 6.21983 1.79192e-19)
(25.7601 6.29147 -7.06324e-19)
(25.9989 6.35347 -2.62549e-18)
(26.2403 6.40465 1.21686e-18)
(26.4876 6.44275 -1.91916e-18)
(26.7426 6.4646 0)
(27.0063 6.4663 0)
(27.2776 6.44345 8.08699e-18)
(27.554 6.39169 -9.27649e-18)
(27.8319 6.30714 6.95744e-19)
(28.1067 6.1865 7.1104e-18)
(28.3721 6.02773 -7.76321e-18)
(28.621 5.8303 -1.16545e-18)
(28.846 5.59543 1.5144e-18)
(29.0399 5.32624 -1.01056e-17)
(29.1962 5.02732 2.2785e-17)
(29.3096 4.70449 -1.1406e-17)
(29.376 4.36462 -1.01277e-17)
(29.3921 4.01464 1.1356e-17)
(29.3588 3.6759 0)
(29.2832 3.36442 -6.252e-19)
(29.1732 3.0817 0)
(29.036 2.83015 -4.75339e-18)
(28.8786 2.61087 9.50318e-18)
(28.7074 2.42393 8.68197e-18)
(28.5279 2.2682 -4.19906e-18)
(28.3444 2.14209 0)
(28.1605 2.04381 -1.66482e-18)
(27.9784 1.97161 1.63724e-18)
(27.7997 1.92374 0)
(27.6262 1.89837 0)
(27.4595 1.89291 -1.94715e-20)
(27.3016 1.90459 0)
(27.154 1.93042 -9.49668e-20)
(27.0175 1.96822 0)
(26.8896 2.01564 0)
(26.7688 2.07305 8.73432e-20)
(26.6559 2.14054 -4.30502e-22)
(26.5483 2.21665 -1.09034e-19)
(25.1724 5.69687 5.51733e-20)
(25.3969 5.76875 1.93917e-19)
(25.609 5.82904 -3.27748e-19)
(25.8126 5.8805 6.25987e-19)
(26.0125 5.92409 -8.29939e-19)
(26.2123 5.95921 6.46451e-18)
(26.4144 5.98451 1.93453e-18)
(26.6207 5.99797 -1.3956e-17)
(26.8319 5.99703 7.10379e-19)
(27.0478 5.9787 6.41585e-18)
(27.267 5.93997 1.47991e-18)
(27.4876 5.87797 -3.02764e-18)
(27.7069 5.79007 3.17483e-19)
(27.921 5.67422 0)
(28.125 5.52928 -6.94011e-19)
(28.3138 5.35521 -9.36493e-19)
(28.4819 5.15319 -9.8912e-18)
(28.6242 4.92575 1.85889e-17)
(28.7358 4.6765 -8.82686e-18)
(28.8128 4.41028 -1.23455e-18)
(28.8517 4.13234 -8.86093e-18)
(28.8509 3.85918 8.28005e-18)
(28.8146 3.60444 5.77702e-19)
(28.7489 3.37045 0)
(28.6594 3.15982 0)
(28.5518 2.97409 -2.52134e-19)
(28.4306 2.81349 2.14622e-19)
(28.3004 2.67753 0)
(28.1646 2.56494 0)
(28.0261 2.47421 -9.08976e-20)
(27.8871 2.40356 0)
(27.7491 2.35135 -1.27591e-18)
(27.6135 2.3159 1.30821e-18)
(27.4813 2.29544 1.77666e-20)
(27.3539 2.28837 1.57269e-20)
(27.2329 2.29309 4.82038e-19)
(27.1198 2.30815 -4.52021e-19)
(27.014 2.33162 0)
(26.9156 2.36338 1.06707e-20)
(26.8255 2.40286 0)
(26.7405 2.44797 3.2191e-20)
(25.2943 5.42041 -9.36236e-20)
(25.4891 5.47499 -1.05305e-20)
(25.6726 5.51956 -7.61017e-19)
(25.8477 5.55674 2.42918e-18)
(26.0182 5.58728 -4.53208e-19)
(26.1868 5.61091 3.26068e-18)
(26.3557 5.62685 -4.16934e-18)
(26.5264 5.63374 5.94769e-18)
(26.6995 5.62986 -8.60968e-19)
(26.8752 5.61319 -5.91887e-18)
(27.0526 5.58165 -8.77153e-18)
(27.2307 5.53321 1.0085e-17)
(27.4077 5.46596 1.40367e-18)
(27.5812 5.37829 1.28424e-18)
(27.7481 5.26909 1.25452e-17)
(27.9047 5.13795 1.58213e-18)
(28.0472 4.98527 -1.29936e-17)
(28.1716 4.81231 -9.55197e-19)
(28.2741 4.62122 -7.18736e-18)
(28.3513 4.41507 1.43467e-17)
(28.4001 4.19747 -7.14378e-18)
(28.4184 3.98116 4.81814e-19)
(28.4079 3.77651 0)
(28.3729 3.58565 0)
(28.3177 3.41095 3.85987e-19)
(28.246 3.25378 3.11009e-18)
(28.1615 3.11443 -2.89615e-18)
(28.0673 2.99346 -3.16827e-18)
(27.9666 2.88971 5.49249e-18)
(27.8619 2.80231 -2.58118e-18)
(27.7549 2.73021 -1.4464e-19)
(27.6474 2.67245 2.20972e-18)
(27.5406 2.62797 -3.26167e-18)
(27.4356 2.5956 2.02919e-18)
(27.3338 2.57442 -8.62699e-20)
(27.2364 2.56357 -1.66729e-18)
(27.1448 2.56213 1.161e-18)
(27.0592 2.56846 -3.83194e-19)
(26.9798 2.58212 1.39241e-19)
(26.908 2.60244 -1.39517e-19)
(26.8409 2.62748 0)
(25.3869 5.19496 8.28955e-20)
(25.558 5.23669 -2.87713e-19)
(25.7187 5.26979 2.89851e-19)
(25.8712 5.29664 2.31349e-18)
(26.0186 5.31777 -1.97932e-18)
(26.1633 5.33315 2.70216e-18)
(26.3069 5.3423 -3.36881e-18)
(26.4508 5.34431 0)
(26.5956 5.33798 1.20805e-18)
(26.7414 5.32189 4.83092e-18)
(26.8878 5.29458 -1.31988e-17)
(27.0341 5.25463 8.69998e-18)
(27.1793 5.20064 -7.42795e-18)
(27.3216 5.1314 -1.83243e-18)
(27.459 5.04597 6.81457e-19)
(27.589 4.94386 2.10632e-17)
(27.7088 4.82512 -9.01082e-18)
(27.8156 4.69035 0)
(27.9065 4.54082 -1.31227e-18)
(27.9787 4.37844 6.69012e-19)
(28.0299 4.20558 0)
(28.0572 4.032 0)
(28.0616 3.86557 0)
(28.0458 3.70811 -6.47376e-19)
(28.0126 3.56149 -3.6297e-19)
(27.9649 3.42714 -3.05378e-19)
(27.9056 3.30581 2.94144e-19)
(27.8374 3.1978 -2.02062e-18)
(27.7623 3.10312 2.33065e-18)
(27.6829 3.02138 2.55665e-19)
(27.601 2.95212 -1.06588e-19)
(27.5179 2.8947 -1.74318e-18)
(27.4349 2.84853 3.58462e-18)
(27.3532 2.81264 -1.78201e-18)
(27.2737 2.78638 0)
(27.1976 2.76901 -6.93965e-19)
(27.1258 2.75987 1.01106e-18)
(27.0588 2.7576 -2.98878e-19)
(26.9967 2.76158 1.35973e-19)
(26.9409 2.77104 -1.43317e-19)
(26.8891 2.78473 0)
(25.4587 5.00751 -9.91236e-20)
(25.6102 5.0395 -2.42853e-19)
(25.7522 5.06409 2.6191e-19)
(25.8864 5.08334 -1.35118e-18)
(26.0152 5.0976 0)
(26.1408 5.10696 1.29452e-18)
(26.2646 5.11116 0)
(26.3877 5.10956 -2.13996e-18)
(26.5106 5.10128 7.17704e-18)
(26.6335 5.08531 -2.07585e-18)
(26.7562 5.06061 4.30887e-18)
(26.8781 5.02616 -7.18704e-18)
(26.9986 4.98093 -8.69633e-19)
(27.1165 4.92403 -7.18749e-18)
(27.2304 4.85474 8.08468e-18)
(27.3385 4.77264 -1.52613e-19)
(27.4388 4.67763 -1.13435e-18)
(27.5293 4.57004 -1.01277e-18)
(27.6078 4.45058 1.22044e-18)
(27.6722 4.32053 -6.23593e-19)
(27.7205 4.18125 0)
(27.7504 4.04027 0)
(27.7621 3.90397 0)
(27.7575 3.77371 1.13673e-18)
(27.7387 3.65139 -4.85225e-18)
(27.7077 3.53818 4.59729e-18)
(27.6669 3.43508 3.76209e-18)
(27.6184 3.34234 -4.01743e-18)
(27.5641 3.26057 0)
(27.5056 3.18919 1.51937e-18)
(27.4446 3.12785 -3.19258e-18)
(27.3824 3.07615 1.35919e-18)
(27.32 3.03367 -1.49029e-18)
(27.2585 2.99959 1.48239e-18)
(27.1985 2.97334 -1.65396e-19)
(27.1411 2.95422 6.19618e-19)
(27.0869 2.94164 -6.90127e-19)
(27.0362 2.93453 0)
(26.9893 2.93223 0)
(26.947 2.93391 6.18161e-20)
(26.9076 2.93912 -5.8296e-20)
(25.5153 4.84918 7.4324e-20)
(25.6504 4.87368 2.88097e-19)
(25.7767 4.89183 1.00167e-18)
(25.8957 4.90539 -1.66921e-18)
(26.0093 4.91455 1.36391e-18)
(26.1193 4.91948 0)
(26.2271 4.92009 0)
(26.3336 4.91588 -1.65121e-19)
(26.4392 4.90625 5.55413e-18)
(26.5441 4.89044 -1.41272e-17)
(26.6481 4.86771 4.221e-18)
(26.751 4.83733 3.81616e-18)
(26.8521 4.79857 3.89814e-19)
(26.9508 4.75079 -1.24802e-17)
(27.046 4.69347 -1.16298e-18)
(27.1363 4.62631 -1.18571e-18)
(27.2205 4.5492 1.3302e-17)
(27.2969 4.46237 1.1932e-18)
(27.364 4.36628 -7.88301e-18)
(27.4203 4.26186 8.58408e-19)
(27.4642 4.15004 -8.32984e-18)
(27.4937 4.03652 7.45e-18)
(27.5087 3.92616 4.58192e-18)
(27.5108 3.82021 -4.18236e-18)
(27.5015 3.72009 4.84331e-19)
(27.4825 3.627 3.46805e-18)
(27.4554 3.54168 -3.44745e-18)
(27.422 3.46454 0)
(27.3837 3.39565 3.59915e-18)
(27.3418 3.33496 1.49394e-18)
(27.2977 3.28216 -1.48634e-18)
(27.2522 3.23687 1.82299e-19)
(27.2064 3.19864 -1.59781e-19)
(27.1609 3.16683 1.23788e-18)
(27.1164 3.14091 -1.22195e-18)
(27.0736 3.12031 6.97693e-19)
(27.0329 3.10447 -4.8702e-19)
(26.9946 3.09251 1.25558e-19)
(26.9588 3.08394 1.19355e-19)
(26.9261 3.07792 -2.38486e-19)
(26.8947 3.07466 7.28646e-22)
(25.5605 4.71375 1.59691e-20)
(25.6816 4.7324 -6.88603e-20)
(25.7946 4.74563 -3.00438e-19)
(25.9007 4.75486 0)
(26.0016 4.76018 -1.24993e-18)
(26.0988 4.76185 -3.6513e-18)
(26.1934 4.75984 6.17656e-18)
(26.2864 4.75381 -9.70892e-18)
(26.378 4.74328 1.25266e-17)
(26.4684 4.72772 -4.27731e-18)
(26.5576 4.70659 -6.37752e-18)
(26.6453 4.67939 4.08736e-19)
(26.7312 4.64557 7.09981e-18)
(26.8146 4.60471 5.88736e-18)
(26.8948 4.55645 -4.69518e-18)
(26.9708 4.50056 1.2058e-18)
(27.0418 4.43701 0)
(27.1066 4.36596 -5.67984e-18)
(27.1639 4.28775 5.77496e-18)
(27.2129 4.20304 -7.96092e-19)
(27.2521 4.11251 6.82446e-18)
(27.2801 4.02053 -6.7219e-18)
(27.2966 3.93095 -8.1236e-19)
(27.303 3.84466 0)
(27.3003 3.76283 0)
(27.2899 3.68633 2.52625e-18)
(27.2729 3.61568 -2.51956e-18)
(27.2507 3.55119 2.71167e-18)
(27.2243 3.49287 2.34553e-18)
(27.1946 3.44083 -2.53195e-18)
(27.1629 3.39465 1.30021e-18)
(27.1299 3.3541 2.38317e-18)
(27.0963 3.31881 -1.0152e-18)
(27.0627 3.28829 0)
(27.0295 3.26208 1.03284e-20)
(26.9972 3.23977 -1.29831e-19)
(26.9661 3.2209 1.15417e-19)
(26.9363 3.20479 -1.17561e-19)
(26.908 3.19113 1.11805e-19)
(26.8817 3.17925 4.73635e-20)
(26.8555 3.16957 1.46273e-19)
(25.5969 4.59667 0)
(25.706 4.61073 1.0097e-19)
(25.8076 4.62013 0)
(25.9027 4.62603 0)
(25.9928 4.62844 3.57687e-18)
(26.0791 4.62766 -2.50351e-18)
(26.1629 4.62374 1.76894e-18)
(26.2446 4.61642 -2.93365e-18)
(26.3247 4.60535 2.17179e-18)
(26.4034 4.59012 0)
(26.4806 4.57036 0)
(26.556 4.54569 0)
(26.6296 4.51577 8.0199e-18)
(26.7007 4.48026 -1.47743e-17)
(26.7689 4.43896 7.65909e-18)
(26.8335 4.39171 -1.11645e-18)
(26.8937 4.33851 0)
(26.9488 4.27948 0)
(26.9979 4.21491 6.28011e-19)
(27.0402 4.14525 0)
(27.0749 4.07101 -4.30614e-18)
(27.1008 3.99563 4.95562e-18)
(27.1176 3.92206 -5.78803e-19)
(27.1263 3.851 -5.76405e-19)
(27.1279 3.78327 4.80504e-18)
(27.1232 3.7195 -3.90642e-18)
(27.1132 3.66007 -3.47972e-20)
(27.0987 3.60526 2.70036e-19)
(27.0807 3.5551 2.63206e-19)
(27.06 3.5096 2.55875e-19)
(27.0373 3.46878 2.4804e-19)
(27.0133 3.43214 -9.89569e-19)
(26.9886 3.39943 9.84605e-19)
(26.9635 3.37029 0)
(26.9385 3.34438 -9.78585e-19)
(26.9137 3.32142 1.08327e-18)
(26.8897 3.30109 2.97493e-19)
(26.8663 3.28291 -4.03017e-19)
(26.8438 3.26669 -9.16891e-20)
(26.8228 3.25194 -9.3874e-20)
(26.8014 3.23917 -8.95665e-20)
(25.6265 4.49455 0)
(25.7251 4.50494 -9.12503e-20)
(25.8169 4.51136 4.15804e-19)
(25.9025 4.51466 -1.56064e-18)
(25.9833 4.51483 1.60586e-18)
(26.0604 4.51222 0)
(26.1349 4.50691 1.33745e-18)
(26.2072 4.49871 1.61144e-19)
(26.2778 4.48734 -1.99535e-18)
(26.3467 4.47251 0)
(26.414 4.45396 -3.8116e-18)
(26.4795 4.43141 3.77206e-18)
(26.543 4.40462 -1.34185e-18)
(26.6041 4.37337 0)
(26.6626 4.33754 0)
(26.7178 4.29702 0)
(26.7692 4.25187 0)
(26.8163 4.20217 -8.74221e-19)
(26.8584 4.14817 0)
(26.8951 4.09021 0)
(26.9256 4.02868 -1.46253e-18)
(26.9491 3.96627 5.34938e-19)
(26.9653 3.90532 -4.10669e-19)
(26.975 3.84628 1.00627e-18)
(26.979 3.78977 0)
(26.9778 3.73625 3.36235e-18)
(26.9724 3.68607 -4.58015e-18)
(26.9633 3.63939 -2.11474e-18)
(26.9513 3.59636 1.17513e-18)
(26.9371 3.55684 1.53242e-18)