/*--------------------------------*- C++ -*----------------------------------*\
| =========                 |                                                 |
| \\      /  F ield         | OpenFOAM: The Open Source CFD Toolbox           |
|  \\    /   O peration     | Version:  2312                                  |
|   \\  /    A nd           | Website:  www.openfoam.com                      |
|    \\/     M anipulation  |                                                 |
\*---------------------------------------------------------------------------*/
FoamFile
{
    version     2.0;
    format      ascii;
    arch        "LSB;label=32;scalar=64";
    class       volScalarField;
    location    "250";
    object      div(phi);
}
// * * * * * * * * * * * * * * * * * * * * * * * * * * * * * * * * * * * * * //

dimensions      [0 0 -1 0 0 0 0];

internalField   nonuniform List<scalar> 
11040
(
0.00253148
0.0059297
-0.00189893
-0.0151302
-0.0713149
-0.115142
-0.0527075
-0.0796702
-0.0861689
-0.0934166
-0.0246169
0.0324113
-0.0620083
0.0994332
0.00193142
0.0282628
0.00670024
0.00689219
0.0124313
0.000224281
0.0287315
-0.00484068
0.0165793
0.00182887
0.0082246
0.00612537
0.0043087
0.0030989
0.00532482
0.0028563
0.00582196
0.00415652
0.00376283
0.0118841
-0.00467498
0.0156014
-0.015248
0.00324213
-0.0233854
-0.0385548
-0.0796468
-0.00373601
-0.0042045
-0.0042283
-0.00831671
-0.0208969
-0.0312329
-0.04817
-0.0699296
-0.0946135
-0.121078
-0.102806
-0.0228608
0.00449465
0.0931306
0.077179
0.0741717
0.0599376
0.0448606
0.044032
0.029066
0.0387715
0.0192373
0.0215555
0.010072
0.0108537
0.00714599
0.00685898
0.00532634
0.00787017
0.00679971
0.00991808
0.0092753
0.014655
0.017938
0.0240314
0.0274989
0.000694728
-0.00508153
-0.0410587
-0.0505956
-0.0744723
-0.00253714
-0.00406375
-0.00794341
-0.0131845
-0.0191334
-0.0184434
-0.00610425
-0.000432754
0.00395895
0.00684205
0.0211866
0.0058375
-0.00586905
0.00317296
-0.0204871
-0.00980775
-0.0135383
-0.00789602
-0.00746906
-0.00686896
-0.00134424
-0.00726989
0.00127849
-0.00329738
0.00137302
0.0018113
0.000533015
0.000654795
0.00035607
-7.67948e-05
-0.000261609
-0.000564602
-0.0031882
-0.00162023
-0.0107216
-0.00546763
-0.0048821
0.000682293
0.0057383
0.00124909
-0.00717372
-0.00539247
-0.00697541
-0.0110735
-0.0130104
-0.0140154
-0.00974298
-0.00861077
-0.0107616
-0.0161128
-0.0194793
-0.0209446
-0.0184997
-0.0098475
0.00785321
0.0131335
0.0185219
0.0181692
0.0157956
0.0146992
0.0104925
0.0115539
0.00619862
0.00695354
0.00933357
0.00392375
0.00359265
0.00342394
0.00332943
0.00392015
0.00390846
0.00460269
0.00443661
0.00509117
0.00444362
0.00307815
0.0023542
-0.00139026
-0.00178157
-0.00758212
-0.0122298
-0.0205727
-0.00334383
-0.00631282
-0.00886889
-0.012163
-0.0118302
-0.0106354
-0.0074427
-0.00560723
-0.00403855
-0.00211286
0.00278677
6.52522e-05
0.000985175
-0.000997656
-0.00750858
-0.00548065
-0.00638587
-0.0040961
-0.00459091
-0.00361946
-0.00300921
-0.00348744
-0.000328197
-0.00128233
0.000776369
0.000815794
0.000241973
0.000425866
0.000137624
0.000173204
-3.93713e-05
-0.000203011
-0.00144292
-0.00139892
-0.00421593
-0.00315145
-0.00127775
-0.000693875
0.00197913
0.000105206
-0.000530644
-0.00633743
-0.00336896
-0.00795458
-0.00649985
-0.00642247
-0.00434959
-0.0013682
0.000194623
0.000362326
0.000774805
-0.00108375
-0.00325151
-0.00446083
-0.00397755
-0.0020286
0.00119216
0.00325004
0.0044559
0.00456182
0.00399773
0.00373848
0.00245344
0.00257193
0.00242672
0.00152133
0.00169463
0.00151318
0.00153009
0.00156388
0.00163847
0.0016223
0.00145797
0.00125277
0.000671279
-0.000129795
-0.000188453
-0.000240517
7.02608e-05
-0.000367914
-0.00163835
-0.00259938
0.000325573
-0.00352944
-0.000625863
-0.00256273
-0.00408825
-0.00257134
-0.00197918
-0.00119758
-0.000835102
-0.000406495
-0.000180552
-0.000621525
-0.000233757
-0.00103204
-0.00222457
-0.00203766
-0.00189809
-0.00114524
-0.00133098
-0.000961452
-0.00119885
-0.000920288
-9.29173e-05
2.00042e-05
0.000737186
0.00051282
0.000380285
0.000429965
0.00036843
0.000406837
0.000301507
0.000161706
-0.00024396
-0.000453598
-0.00110358
-0.000885604
-0.000324294
-0.000228132
0.000175806
-9.64197e-06
-0.000133895
-0.00334419
0.000961241
0.000357668
-0.00311475
-0.0014015
-0.0026523
-0.000583777
0.000752433
0.00135805
0.0024158
0.00154377
0.00195918
-0.000342532
-0.00189515
-0.0024005
-0.00199446
-0.00125867
-0.000365571
0.000297334
0.000583398
0.000802443
0.000707472
0.000747846
0.000778012
0.000448486
0.000624271
0.000550422
0.00051934
0.000476442
0.000448302
0.000332872
0.000162762
-1.00128e-05
-0.000311087
-0.000450823
-0.000289219
-8.60076e-05
0.000214896
0.000416875
0.000415532
0.000515986
0.000261876
0.00223925
-0.00178908
0.00101588
-0.00195598
0.000366499
0.00176924
0.00202636
0.00311126
0.00196509
0.00302139
0.000917754
0.00068677
-0.000603032
-0.000928617
-0.00109891
-0.00073205
-0.000439539
-0.000274468
-6.3331e-05
-0.000138885
4.3123e-05
0.000203342
0.000206992
0.000587218
0.000382973
0.000368533
0.000349791
0.000355675
0.000316549
0.000266915
0.000138773
-1.53636e-05
-0.000171447
-0.000301116
-0.000218929
-9.72562e-05
4.56869e-05
0.000118113
0.000259345
0.000286925
0.00130767
-0.000782779
0.0011896
-0.00136366
7.85816e-05
0.000958922
0.00127438
0.00220608
0.00154175
0.00251774
0.00137476
0.00207228
0.000601129
0.000239416
-0.000859105
-0.000637481
-0.00116799
-0.000804577
-0.000503594
-0.000348142
-0.000126562
4.89817e-06
6.79098e-05
0.000203342
0.000216671
0.000123818
0.00011757
0.000118029
9.79654e-05
0.000107289
-1.76801e-05
-1.16635e-05
-0.000209236
-0.000182733
-0.000317989
-0.000103837
-0.000119502
9.08413e-05
0.000154194
0.000309731
0.000357723
-0.000298455
9.97548e-05
-0.000675367
-0.000581198
-0.000337627
-6.53189e-05
0.000271127
0.000359152
0.000746136
0.000555927
0.00160612
0.000620451
0.00108404
-0.000357561
0.000127109
-0.00101804
-0.000583915
-0.000441538
-0.000241833
-7.81276e-05
-1.83781e-05
3.99167e-05
0.000139321
0.000192387
7.81188e-05
8.88516e-05
5.5982e-06
-2.93095e-05
-8.6869e-06
-0.000115583
-1.47723e-05
-0.000242998
-4.71243e-05
-0.000335991
6.39455e-07
-0.000200929
0.00014911
5.13526e-05
0.000306704
0.000314371
0.000412374
-0.000387908
-0.00026004
-0.000533041
-0.000792508
-0.000784282
-0.000922912
-0.000748527
-0.000631478
-0.000569392
0.000266895
-3.97114e-05
0.000965563
-7.11502e-06
0.000513793
-0.000459706
-0.000272548
-0.000202279
-0.000181562
-3.25444e-05
-5.15259e-05
-0.00010189
-5.50237e-06
4.5449e-05
-7.34773e-05
0.000229562
-9.65563e-05
-6.43683e-05
-4.33316e-05
-9.24292e-05
-1.34462e-05
-0.000153513
4.87081e-06
-0.00021999
2.97508e-05
-0.000180659
0.000107189
-3.1849e-05
0.000185118
0.000155139
0.000249646
0.000335009
-0.000349554
-0.000148797
-0.000346607
-0.000476712
-0.000538622
-0.000715614
-0.000634677
-0.000726664
-0.000556374
-0.000444424
4.23176e-05
2.0028e-06
0.000196861
-3.16673e-05
-0.000101842
7.51117e-06
-6.96668e-05
9.3383e-06
1.20951e-05
-0.000212044
-0.000132082
-0.000159297
-0.000179362
9.99081e-05
-0.000125195
0.000153591
1.38178e-05
1.71227e-05
1.28405e-05
3.3068e-06
2.82121e-05
-1.14525e-05
2.44577e-05
-2.66357e-05
2.39855e-05
-2.10994e-06
3.07888e-05
3.10978e-05
4.11801e-05
9.10545e-05
6.22035e-05
-0.000256076
-5.56827e-05
-0.000168126
-0.00020488
-0.000247728
-0.000384476
-0.000310815
-0.000468931
-0.000306098
-0.000420397
-0.000155923
-0.000150011
-7.18225e-06
-5.24312e-06
3.34488e-05
7.40255e-05
2.65789e-05
0.000106454
-0.000162781
-0.000116248
-0.000162551
-0.000165296
5.10739e-05
-0.000118665
0.000243511
-7.14106e-05
0.000120464
6.08226e-05
0.000104979
7.9301e-05
0.00010011
8.36656e-05
7.03775e-05
5.59645e-05
2.39061e-05
1.61796e-05
-2.99122e-05
-1.98148e-05
-6.8026e-05
-3.21235e-05
-6.59221e-05
-0.000127367
-1.27363e-06
-7.65919e-05
-7.93995e-05
-9.60508e-05
-0.000176564
-0.000116433
-0.000253985
-0.000118406
-0.00025747
-8.07462e-05
-0.000161359
-9.65985e-06
-4.8947e-05
5.29411e-05
3.0779e-05
8.50115e-05
-3.2447e-06
-2.6356e-05
-1.33045e-05
-4.75979e-05
7.72529e-05
-9.30778e-05
0.00026909
-9.35486e-05
0.000396629
1.28288e-05
8.4082e-05
0.000101751
6.03547e-05
0.000154142
1.98797e-05
0.000175658
-2.92807e-05
0.000149047
-6.41555e-05
8.00895e-05
-7.13587e-05
1.28894e-06
-5.47414e-05
-4.66099e-05
-7.73849e-05
4.35515e-06
-2.75621e-05
-3.04866e-05
-3.04466e-05
-7.34677e-05
-2.93296e-05
-0.000113157
-2.3537e-05
-0.000128268
-8.5071e-06
-0.000107748
1.37387e-05
-6.26195e-05
3.88253e-05
1.02105e-06
6.32846e-05
3.75461e-05
6.27756e-05
4.57938e-05
6.77159e-05
-1.23179e-05
0.000193722
-4.54717e-05
0.000245265
-0.000140846
0.000258638
5.20041e-05
5.81435e-05
9.36856e-05
5.33675e-05
0.000113309
3.63412e-05
0.000105968
8.92941e-06
7.39112e-05
-9.47254e-06
2.95481e-05
-1.63027e-05
-4.26377e-06
-1.12864e-05
-3.17559e-05
1.10662e-05
-8.13043e-06
-6.76082e-06
-9.0025e-07
-2.41999e-05
8.09287e-06
-4.22834e-05
1.51481e-05
-5.46368e-05
1.98413e-05
-5.83794e-05
2.20593e-05
-5.01559e-05
2.80677e-05
-3.02328e-05
3.91522e-05
4.9431e-06
4.70031e-05
3.43603e-05
4.88068e-05
0.000111532
-2.48635e-05
9.87296e-05
-5.25996e-05
6.47706e-05
-3.32339e-05
2.48721e-05
2.78444e-05
5.15602e-05
3.40178e-05
6.67782e-05
2.85374e-05
6.53499e-05
1.67375e-05
5.28075e-05
6.34462e-06
3.36844e-05
1.01765e-06
1.94901e-05
2.01694e-06
-1.26552e-05
5.06909e-06
-2.81613e-07
-2.80461e-06
2.32892e-06
-8.95591e-06
8.83764e-06
-1.44522e-05
1.54611e-05
-1.97591e-05
1.94976e-05
-2.5735e-05
1.92874e-05
-3.14624e-05
1.48016e-05
-2.82681e-05
1.55324e-05
-1.86282e-05
1.90174e-05
-9.04771e-06
2.47498e-05
-3.12131e-05
6.9647e-05
-7.49024e-05
6.63733e-05
-0.000125535
6.02333e-05
-3.12221e-05
1.05167e-05
1.09187e-05
1.39304e-05
2.93803e-05
9.72343e-06
3.61832e-05
4.2859e-06
3.50334e-05
4.71627e-07
2.86492e-05
-1.15286e-06
2.21008e-05
-6.36035e-07
-1.67707e-06
4.72529e-06
1.90428e-07
2.1639e-07
2.88767e-06
-2.03645e-06
7.81581e-06
-3.8974e-06
1.2785e-05
-6.6657e-06
1.53002e-05
-1.20483e-05
1.38378e-05
-1.89066e-05
1.00168e-05
-2.66356e-05
3.42183e-06
-3.05262e-05
-5.17118e-06
-2.78889e-05
-7.20472e-06
2.15011e-05
-5.36844e-05
4.79877e-05
-7.28224e-05
3.46283e-05
-0.000116555
1.24672e-05
-1.7576e-05
-4.33311e-07
7.30599e-06
7.37293e-06
1.76204e-05
8.47259e-06
2.149e-05
7.75966e-06
2.21013e-05
6.80384e-06
2.11031e-05
5.8285e-06
2.122e-05
3.44979e-06
-2.24121e-06
2.37488e-06
-1.94892e-06
1.86512e-06
-1.70303e-06
3.65368e-06
-1.32609e-06
6.14975e-06
-2.3473e-06
7.50403e-06
-5.15657e-06
6.58407e-06
-1.14143e-05
2.42046e-06
-1.91469e-05
-6.37373e-06
-2.65056e-05
-1.51733e-05
-2.75418e-05
-1.03618e-05
-3.26326e-05
2.58719e-05
-6.27128e-05
-2.76115e-05
-5.72955e-05
-4.59213e-05
-7.7221e-05
-3.2493e-05
-1.23905e-05
-1.21172e-05
-4.18181e-06
-7.40232e-07
-2.55376e-06
4.83077e-06
-3.48891e-06
6.96252e-06
-4.68025e-06
6.90236e-06
-5.69972e-06
5.36556e-06
-1.42675e-05
3.01981e-06
-4.42162e-06
-1.19781e-07
-2.48656e-06
-2.96293e-06
1.05957e-06
-5.65492e-06
4.70873e-06
-8.97194e-06
8.42827e-06
-1.40216e-05
1.00969e-05
-2.09483e-05
1.01108e-05
-2.87432e-05
7.72406e-06
-3.49954e-05
2.67133e-06
-3.19898e-05
1.96846e-06
1.17915e-05
-2.08993e-05
-3.06115e-06
-4.73609e-05
-4.55709e-05
-2.66186e-05
-3.83871e-05
-4.22825e-05
-1.17897e-05
-2.16949e-06
5.50641e-07
3.71675e-06
6.85038e-06
4.68628e-06
1.02074e-05
5.27506e-06
1.11184e-05
4.34905e-06
9.93394e-06
3.4582e-06
4.35096e-06
-2.3602e-06
-1.09978e-06
-3.39153e-06
-3.59938e-06
-3.78473e-06
-5.23368e-06
-3.35632e-06
-6.58789e-06
-2.49238e-06
-8.28704e-06
-1.64349e-06
-1.073e-05
-1.73782e-06
-1.35233e-05
-1.65328e-06
-1.59728e-05
-3.42089e-06
-1.49831e-05
-4.27806e-06
4.98368e-06
-7.51943e-06
1.5896e-09
-2.44058e-05
-9.88194e-06
-2.35086e-05
9.59237e-06
-2.4265e-05
5.71744e-06
-7.40959e-06
1.23219e-06
-1.03789e-06
3.57508e-06
1.56666e-06
3.76509e-06
2.36487e-06
1.87923e-06
2.60308e-06
7.49778e-07
2.51838e-06
5.83346e-07
-1.18454e-05
1.30783e-06
-3.77608e-06
-1.41686e-06
-4.75502e-06
-3.16846e-06
-5.43357e-06
-4.04338e-06
-6.26089e-06
-4.25877e-06
-6.69063e-06
-4.15247e-06
-7.90319e-06
-3.94061e-06
-8.92154e-06
-3.7809e-06
-9.91887e-06
-3.97278e-06
-1.02683e-05
-1.96527e-06
-7.00975e-06
-6.26554e-06
-8.91768e-06
-4.23795e-07
-1.67134e-05
-3.29499e-06
-2.06947e-05
-1.5972e-05
-2.82769e-05
-1.81822e-05
-5.86924e-06
-1.33265e-05
-2.25863e-06
-1.0727e-05
-8.83812e-07
-9.34607e-06
1.1812e-09
-7.99765e-06
9.72128e-07
-6.24072e-06
7.52732e-07
4.63148e-06
-4.22939e-06
7.49153e-07
-3.94742e-06
-1.32504e-06
-4.50746e-06
-3.15207e-06
-4.41957e-06
-4.86648e-06
-3.5947e-06
-6.6162e-06
-2.57179e-06
-8.59566e-06
-1.37181e-06
-1.05131e-05
1.13462e-07
-1.19444e-05
1.42633e-06
-1.28839e-05
1.87812e-06
-1.07813e-05
8.26546e-07
1.99529e-06
-6.79947e-06
-2.229e-06
-1.63877e-05
-2.12024e-05
-1.13612e-05
-2.22305e-05
-2.04326e-05
-1.35009e-05
-5.01371e-06
-1.10227e-05
-2.99032e-06
-1.02227e-05
-2.00764e-06
-9.07939e-06
-2.06587e-07
-7.27001e-06
8.74801e-07
-5.00374e-06
-8.19188e-06
1.68808e-06
-1.50537e-06
-8.42928e-07
-2.38516e-06
-2.33167e-06
-3.22219e-06
-3.48758e-06
-3.56752e-06
-4.3998e-06
-3.631e-06
-5.3015e-06
-3.46701e-06
-6.17356e-06
-2.90638e-06
-6.72691e-06
-2.36152e-06
-7.16739e-06
-1.9501e-06
-6.81252e-06
-2.01145e-06
-1.30582e-09
-4.52926e-06
-3.7268e-06
-1.03006e-05
-9.13964e-06
-1.35767e-05
1.04371e-06
-2.00431e-05
-4.16297e-06
-1.72165e-05
-4.78145e-06
-1.60106e-05
-3.88242e-06
-1.53453e-05
-2.87375e-06
-1.35795e-05
-1.23065e-06
-1.09372e-05
-6.16727e-08
-8.07474e-06
5.54115e-06
-2.27588e-06
1.06789e-06
-2.0913e-06
-3.81502e-07
-2.67932e-06
-1.577e-06
-3.18176e-06
-2.37503e-06
-3.5237e-06
-2.81104e-06
-3.89191e-06
-3.00346e-06
-4.13142e-06
-2.87091e-06
-4.44494e-06
-2.87732e-06
-4.50658e-06
-3.05952e-06
-4.82032e-06
-1.97662e-06
-3.94171e-06
-4.6045e-06
-4.22351e-06
-7.6915e-06
-9.15343e-06
-5.31146e-06
-1.51092e-05
-3.20243e-06
-2.38126e-05
-1.13612e-05
-1.50813e-05
-5.47018e-06
-1.34755e-05
-4.23205e-06
-1.21233e-05
-2.74222e-06
-1.00628e-05
-1.47248e-06
-7.90454e-06
5.4631e-08
-6.11297e-06
2.53754e-06
-2.46521e-06
8.78635e-07
-2.3386e-06
-5.12139e-08
-2.92412e-06
-1.07682e-06
-3.14499e-06
-2.0331e-06
-2.89705e-06
-3.05738e-06
-2.44078e-06
-4.12392e-06
-1.79245e-06
-5.13859e-06
-1.21594e-06
-6.05325e-06
-8.52847e-07
-6.61163e-06
-6.18539e-07
-6.5378e-06
-7.54971e-07
-6.54424e-06
-4.04676e-06
-7.54729e-06
-1.03191e-05
-1.51352e-05
-1.04409e-05
-1.88684e-05
-2.0073e-05
-1.54369e-05
-7.13497e-06
-1.37268e-05
-5.03626e-06
-1.19818e-05
-2.81537e-06
-9.74225e-06
-1.30066e-06
-7.87333e-06
3.90944e-07
4.60404e-06
-2.31825e-06
9.75627e-07
-9.5492e-07
-3.04738e-07
-1.39718e-06
-1.1694e-06
-2.01949e-06
-1.92417e-06
-2.40029e-06
-2.54831e-06
-2.60702e-06
-3.13355e-06
-2.61873e-06
-3.70524e-06
-2.56108e-06
-4.29805e-06
-2.48215e-06
-4.65932e-06
-2.32463e-06
-4.6308e-06
-1.98529e-06
-4.93829e-06
-1.30513e-06
-8.19147e-06
-5.15498e-06
-1.3565e-05
-1.32748e-05
-1.15158e-05
-1.72217e-05
-1.93393e-05
-1.5301e-05
-5.08863e-06
-1.39125e-05
-2.44212e-06
-1.24201e-05
-5.73166e-07
-1.06669e-05
1.20101e-06
-8.43227e-06
1.98813e-06
-2.91418e-06
1.61197e-06
-2.04879e-06
3.74221e-07
-1.54509e-06
-2.59447e-07
-1.84619e-06
-1.04306e-06
-2.16455e-06
-1.66737e-06
-2.38813e-06
-2.0938e-06
-2.6983e-06
-2.32124e-06
-2.95122e-06
-2.49961e-06
-3.22507e-06
-2.53141e-06
-3.30097e-06
-2.39554e-06
-3.13593e-06
-1.96053e-06
3.00332e-08
-5.43365e-06
1.90279e-07
-1.09321e-05
-5.47178e-06
-1.3737e-05
-1.20833e-05
-9.4342e-06
-1.52274e-05
-1.66357e-05
-1.19747e-05
-4.01191e-06
-1.02655e-05
-1.67227e-06
-8.80988e-06
8.63713e-08
-7.05083e-06
1.60487e-06
-5.58938e-06
2.56533e-06
-2.68485e-06
9.80674e-07
-2.1619e-06
2.45514e-07
-1.96043e-06
-1.97287e-07
-2.38897e-06
-8.30115e-07
-2.5689e-06
-1.50268e-06
-2.54123e-06
-2.20174e-06
-2.27436e-06
-3.00242e-06
-1.87142e-06
-3.73374e-06
-1.39016e-06
-4.42835e-06
-9.97734e-07
-4.87648e-06
-5.16182e-07
-7.49214e-06
2.35609e-07
-1.10998e-05
-9.73562e-07
-1.23427e-05
-4.08731e-06
-1.26736e-05
-2.99143e-06
-1.53735e-05
-9.22284e-06
-1.00688e-05
-3.12282e-06
-8.4455e-06
-1.28786e-06
-7.34384e-06
1.4839e-07
-5.93433e-06
1.5814e-06
-4.79733e-06
-1.90307e-06
1.00198e-06
-2.2522e-06
3.59713e-08
-1.15362e-06
-6.28552e-07
-1.46045e-06
-1.20122e-06
-1.87281e-06
-1.76875e-06
-2.20269e-06
-2.16687e-06
-2.39689e-06
-2.7073e-06
-2.40467e-06
-3.23291e-06
-2.56751e-06
-3.75993e-06
-2.4692e-06
-4.22327e-06
-2.06668e-06
-5.34862e-06
-3.67798e-07
-8.4585e-06
-1.02096e-09
-1.04212e-05
-1.07323e-06
-1.10643e-05
-6.18549e-06
-8.7756e-06
-8.07699e-06
-1.36367e-05
-8.68057e-06
-2.22126e-06
-7.5104e-06
-1.85649e-07
-6.51458e-06
1.32474e-06
-5.54777e-06
2.5336e-06
-4.64185e-06
1.5712e-06
-2.01133e-06
5.56131e-07
-1.86596e-06
-1.79046e-07
-1.52278e-06
-5.75522e-07
-1.71135e-06
-1.16072e-06
-1.86089e-06
-1.59832e-06
-2.0985e-06
-1.93415e-06
-2.26653e-06
-2.18524e-06
-2.60215e-06
-2.25483e-06
-3.02065e-06
-2.51086e-06
-2.77891e-06
-2.09225e-06
3.2701e-07
-4.46793e-06
2.66019e-06
-8.31347e-06
1.27997e-06
-9.61869e-06
6.47743e-07
-8.84236e-06
-4.33456e-06
-6.42239e-06
-5.46063e-06
-8.83319e-06
-5.46279e-06
-5.32006e-07
-4.85852e-06
7.31407e-07
-4.61569e-06
1.8973e-06
-4.17901e-06
2.71876e-06
-1.29603e-06
7.19009e-07
-2.30696e-06
2.90789e-07
-1.78155e-06
1.50501e-09
-1.58806e-06
-2.62958e-07
-1.77445e-06
-6.687e-07
-1.87126e-06
-1.05743e-06
-1.71636e-06
-1.59217e-06
-1.51731e-06
-2.08151e-06
-1.26016e-06
-2.60451e-06
-7.48523e-07
-2.87574e-06
-5.5053e-08
-4.61487e-06
1.22918e-06
-6.99233e-06
1.58909e-06
-7.52365e-06
1.68754e-06
-7.40894e-06
8.92153e-07
-5.30412e-06
2.01461e-06
-7.39879e-06
1.19043e-06
-3.6463e-06
6.70079e-07
-3.13347e-06
1.41048e-06
-3.08943e-06
1.80184e-06
-3.00768e-06
2.49821e-06
1.02638e-06
-1.56439e-06
4.43795e-07
-1.74673e-06
-3.63622e-08
-5.34014e-07
-3.37819e-07
-6.95611e-07
-6.13883e-07
-9.30107e-07
-8.17695e-07
-1.0305e-06
-1.08123e-06
-1.0508e-06
-1.23422e-06
-1.01341e-06
-1.42396e-06
-6.39915e-07
-1.61834e-06
-3.20257e-07
-2.52569e-06
1.24616e-06
-4.75319e-06
2.10598e-06
-6.12236e-06
1.54065e-06
-6.81481e-06
1.89733e-06
-5.25632e-06
-9.70525e-07
-2.9884e-06
-2.04381e-06
-3.66345e-06
-3.20129e-06
-1.33414e-07
-2.83512e-06
6.5131e-07
-2.61059e-06
1.1223e-06
-2.43698e-06
1.82941e-06
-8.56335e-07
5.73292e-07
-1.67563e-06
3.36891e-07
-3.94087e-07
-2.50254e-07
-5.74065e-08
-3.81076e-07
-2.67797e-07
-5.51119e-07
-4.80767e-07
-6.72657e-07
-5.21449e-07
-7.00163e-07
-7.46843e-07
-5.70774e-07
-8.93109e-07
-5.62492e-07
-7.85251e-07
-3.92005e-07
1.19477e-06
-2.05237e-06
3.08012e-06
-4.39795e-06
2.04403e-06
-5.35334e-06
1.88215e-06
-4.67046e-06
1.68857e-06
-2.58727e-06
2.60269e-06
-5.07055e-06
2.66658e-06
-2.87357e-06
5.70532e-07
-2.3579e-06
7.49354e-07
-2.17421e-06
9.46056e-07
-1.92635e-06
1.18207e-06
7.91998e-07
-1.0851e-06
5.0635e-07
-9.21824e-07
-2.87351e-07
3.30911e-07
-3.70923e-07
1.88818e-07
-3.92842e-07
-7.69258e-08
-3.73931e-07
-2.19254e-07
-4.78532e-07
-3.29528e-07
-5.16653e-07
-3.58813e-07
-6.42235e-07
-8.26232e-08
-8.24285e-07
5.9461e-08
-1.76011e-06
1.37141e-06
-3.279e-06
2.07326e-06
-3.89663e-06
1.80543e-06
-4.17032e-06
1.76228e-06
-1.78401e-06
2.39091e-06
2.7736e-07
2.90072e-06
-2.70173e-06
3.69311e-06
-1.26983e-06
9.94299e-07
-6.42997e-07
1.09626e-06
-2.68962e-07
1.03897e-06
-3.59996e-07
-5.39559e-07
4.92595e-07
-1.05291e-06
-2.69764e-08
1.62783e-07
-5.89951e-07
4.98365e-07
-3.76632e-07
3.51364e-07
-3.82094e-07
1.49443e-07
-3.64594e-07
-2.25795e-08
-2.46314e-07
-2.61072e-07
-1.77262e-07
-4.55781e-07
-1.65334e-07
-5.18742e-07
-1.57236e-07
9.41627e-07
-9.55365e-07
2.9431e-06
-2.6325e-06
2.03689e-06
-3.66838e-06
1.12854e-06
-2.57159e-06
1.64488e-06
-1.04605e-06
1.307e-07
-1.14638e-06
-1.17693e-06
-1.48512e-06
-1.58662e-06
6.06886e-08
-1.02988e-06
4.64776e-07
-4.89609e-07
6.10499e-07
-3.33027e-07
6.28455e-07
-6.67375e-07
3.22617e-07
-5.4734e-07
-4.27059e-07
3.49967e-07
6.9271e-08
2.07485e-07
4.36041e-08
9.98036e-08
-2.84061e-08
2.95615e-08
-4.76044e-08
-1.08283e-07
-1.03273e-07
-1.48394e-07
-1.96798e-07
-1.67762e-07
-3.79e-08
-5.64885e-08
-7.5694e-09
1.84212e-06
-1.57159e-06
2.74778e-06
-3.64777e-06
9.51542e-07
-2.6145e-06
1.18481e-06
-2.79019e-06
5.23168e-07
-3.1596e-06
8.83908e-07
-3.72004e-06
5.2088e-07
-1.29488e-06
5.40245e-07
-6.64275e-07
6.92464e-07
-2.20556e-07
6.2061e-07
-7.42091e-08
-2.95214e-07
3.48641e-07
-6.85203e-07
-5.15068e-08
8.15991e-08
-1.78942e-08
1.16776e-07
2.33957e-07
1.18583e-07
1.86835e-07
8.64498e-08
8.90254e-08
4.59728e-08
8.13941e-08
6.30939e-08
-9.72004e-08
1.83122e-07
-2.11681e-07
1.02384e-07
-3.05168e-07
2.69807e-07
-1.70151e-06
1.61811e-06
-3.76342e-06
1.76276e-06
-2.14487e-06
1.6954e-06
-2.52848e-06
1.32155e-06
-3.63292e-06
-1.10399e-06
-2.31599e-06
-7.2278e-07
-3.20173e-06
-1.53568e-06
-4.81179e-07
-1.23671e-06
-1.38364e-08
-8.68197e-07
2.57863e-07
-6.69483e-07
4.59473e-07
-4.02605e-07
2.41089e-07
-3.82935e-07
-1.74174e-07
-5.70978e-08
3.00784e-07
-7.03511e-10
2.92274e-07
7.1138e-08
2.15095e-07
1.1486e-07
1.97248e-07
5.74072e-08
1.33961e-07
9.224e-08
1.07035e-07
1.53264e-07
2.26916e-07
3.33312e-07
9.58799e-08
1.81806e-06
-2.03897e-06
2.56098e-06
-1.91365e-06
2.05568e-06
-2.99813e-06
1.8206e-06
-6.81499e-06
-8.84578e-07
-4.60653e-06
3.09386e-07
-4.22399e-06
-8.85924e-07
-1.02964e-06
1.06553e-07
-3.61796e-07
2.81534e-07
-2.36977e-07
3.23407e-07
-4.53269e-07
-1.65834e-07
2.95112e-07
-4.39468e-07
7.70953e-08
-2.18167e-07
2.03098e-07
-2.46114e-07
3.63699e-07
-1.47112e-08
3.40366e-07
4.7751e-08
2.67228e-07
7.95469e-08
2.11415e-07
2.14306e-07
9.6494e-08
4.28298e-07
-4.79173e-08
4.71332e-07
-2.24504e-07
4.55056e-07
-1.8594e-06
1.58978e-06
-1.4096e-06
2.89142e-06
-1.1312e-06
3.20032e-06
-2.873e-06
4.37052e-06
-1.11499e-07
3.55344e-06
-9.07889e-07
3.03569e-06
1.61404e-07
1.74841e-08
5.55394e-07
-3.6038e-07
1.03279e-06
-2.95752e-07
1.57942e-06
-3.67285e-07
3.84789e-07
-2.20377e-07
2.92671e-07
-2.88469e-07
4.38054e-08
-2.0706e-07
2.70126e-07
1.14837e-07
2.19658e-07
1.76778e-07
1.78766e-07
1.84819e-07
1.49965e-07
2.23932e-07
1.2495e-07
3.33592e-07
2.00079e-07
3.03885e-07
1.39751e-07
5.21054e-07
-1.27855e-06
8.58217e-07
-1.7272e-06
1.32649e-06
-2.7063e-06
1.2271e-06
-6.41321e-06
-2.56441e-08
-7.64705e-06
-1.64139e-07
-8.76167e-06
-3.02715e-06
-7.70989e-06
1.12613e-08
-9.43707e-06
-7.60063e-07
3.78273e-07
-1.64439e-07
1.21502e-06
1.38664e-07
1.60286e-06
-4.70729e-08
2.59333e-07
-1.62113e-07
1.56207e-07
-1.15296e-07
2.48315e-07
7.56321e-08
1.93166e-07
1.9711e-07
1.64162e-07
2.51937e-07
1.48954e-07
2.78097e-07
1.40171e-07
3.2628e-07
2.19862e-07
1.71968e-07
4.09668e-07
6.7652e-08
3.9041e-07
1.7314e-06
6.31668e-07
3.19552e-06
5.45675e-07
3.91765e-06
1.439e-06
7.33586e-06
5.2571e-06
1.1368e-05
8.65307e-06
1.56516e-05
1.08789e-05
1.24395e-05
4.64023e-06
1.96127e-05
2.32875e-06
3.33967e-06
6.26503e-07
2.72553e-06
5.7767e-07
2.60983e-06
2.4693e-07
1.22115e-08
2.4034e-07
7.96863e-08
2.31309e-07
5.68018e-09
1.83509e-07
8.96388e-08
1.27376e-07
1.72151e-07
1.17958e-07
2.48963e-07
1.40189e-07
3.29726e-07
8.99714e-08
3.23828e-07
1.90977e-07
1.79048e-07
5.83436e-07
1.99325e-07
6.42774e-07
1.13633e-06
-2.82277e-06
-2.61789e-07
-8.09992e-06
-4.16549e-06
-1.14191e-05
-6.90836e-06
-1.33864e-05
-8.20054e-06
-1.7153e-05
-9.99675e-06
-1.42803e-05
-3.12575e-06
-1.96404e-05
-1.27701e-06
-3.36367e-07
4.31875e-07
9.46461e-07
7.61717e-07
1.11873e-06
9.25041e-08
1.41897e-07
1.24177e-07
5.48248e-08
-1.1493e-07
8.98505e-08
-1.46422e-07
-4.52721e-08
-1.13756e-07
-3.77213e-08
8.35289e-08
1.21637e-08
2.37594e-07
7.67519e-08
3.28534e-07
2.29727e-07
-2.74203e-08
5.41331e-07
-7.77386e-07
8.89675e-07
-7.99166e-07
2.96958e-07
2.98159e-06
2.52419e-06
8.71515e-06
1.0722e-05
1.57944e-05
1.9064e-05
2.26514e-05
2.89069e-05
3.4821e-05
3.29713e-05
2.72201e-05
1.76208e-05
4.39939e-05
6.64949e-06
5.39006e-06
2.75822e-06
3.32742e-06
2.17624e-06
2.87564e-06
1.40907e-07
2.18917e-08
-1.10536e-07
-2.16186e-07
-1.73559e-07
-4.95325e-07
-2.87125e-07
-6.02809e-07
-2.4608e-07
-4.85762e-07
-1.78358e-07
-2.61881e-07
-3.53177e-08
1.09219e-08
1.76832e-08
-6.22117e-09
2.21875e-07
-2.80285e-07
8.04881e-07
-2.63374e-07
2.63364e-07
9.61231e-07
-6.11649e-06
-4.60773e-06
-1.26904e-05
-1.39072e-05
-1.68885e-05
-1.83515e-05
-2.28003e-05
-2.13457e-05
-2.66296e-05
-1.94847e-05
-1.77179e-05
-7.76682e-06
-2.65607e-05
-2.85345e-06
-1.85658e-06
-4.40493e-07
-9.78582e-07
-1.09659e-07
-1.12029e-06
5.63795e-08
-7.12349e-08
-1.63862e-07
-2.78907e-07
-5.16948e-07
-4.25579e-07
-6.72068e-07
-4.37107e-07
-7.48071e-07
-4.29619e-07
-7.19147e-07
-3.83899e-07
-5.63989e-07
-3.79618e-07
-4.16392e-07
-2.71188e-07
-6.20376e-07
1.49765e-08
-1.47983e-06
2.91968e-07
-9.00593e-07
-1.00394e-06
3.54109e-06
1.18632e-05
1.7659e-05
3.75374e-05
3.7699e-05
5.19521e-05
4.97061e-05
6.85982e-05
5.48911e-05
5.38359e-05
2.56345e-05
8.4096e-05
1.24871e-05
9.98987e-06
6.17834e-06
5.80796e-06
3.93343e-06
5.05917e-06
3.22412e-06
2.2131e-08
-3.10772e-08
-6.90763e-08
-1.33331e-07
-1.43544e-07
-2.1983e-07
-1.94706e-07
-3.39136e-07
-2.40725e-07
-5.16759e-07
-2.93222e-07
-7.04561e-07
-4.25046e-07
-8.11158e-07
-6.36838e-07
-6.29362e-07
-1.02759e-06
-2.04501e-09
-1.74429e-06
1.17638e-06
-2.20693e-06
1.37427e-06
-1.49655e-06
-3.60006e-06
-8.3356e-06
-1.48932e-05
-2.43103e-05
-2.83376e-05
-3.44298e-05
-4.91243e-05
-4.01441e-05
-4.47434e-05
-1.72992e-05
-6.99455e-05
-8.0421e-06
-8.37229e-06
-3.51609e-06
-4.90779e-06
-2.84707e-06
-3.41435e-06
-3.96511e-06
-0.0767017
-0.0157438
-0.00181784
0.0128657
0.0286054
0.00421505
0.00984682
0.00401805
0.00319101
0.00269335
0.000847953
0.00224614
0.000112531
0.00188333
3.83345e-05
0.000495711
0.00121886
-4.12957e-05
-0.000315483
0.000432003
-4.59612e-05
0.000412112
-0.000331723
0.000245231
-0.000238467
-2.63536e-05
6.49925e-05
-5.86264e-05
-3.37305e-05
9.92732e-05
9.21512e-05
0.000143265
-4.64205e-06
9.26545e-05
-9.29508e-06
0.000204362
-0.000183109
0.000145672
-0.000135148
-7.87491e-06
-2.80385e-05
5.60762e-05
-6.88166e-05
6.12976e-05
-4.84787e-05
2.95106e-05
6.31607e-05
5.74437e-05
7.81068e-05
3.01761e-05
6.74517e-05
3.59197e-06
4.80941e-05
8.57064e-06
2.85664e-05
1.46351e-06
4.53588e-05
-1.58459e-05
2.0419e-05
5.71324e-06
3.16034e-05
-1.23756e-05
3.43849e-05
3.08576e-06
7.82672e-06
1.05025e-05
9.24289e-06
8.52179e-06
1.31541e-05
1.97203e-05
1.29522e-06
7.61026e-06
-1.32621e-06
8.7117e-06
-0.0481262
-0.0158579
-0.00158181
0.00434546
0.00677068
0.00248932
0.0024561
0.00135373
0.00106663
0.000695049
0.000544568
0.000465356
0.00029541
0.000240995
5.57281e-05
0.000345066
0.000719334
0.000351955
-0.000161458
0.000442786
-3.42724e-05
0.000509354
-0.00029663
0.000209372
-0.000193666
-8.34578e-05
-9.76579e-07
3.04616e-05
7.38535e-05
0.00012027
0.000127535
0.000133691
0.000116157
0.000137918
6.23058e-05
8.01732e-05
3.40832e-05
6.13829e-05
2.11124e-05
3.3587e-05
1.77695e-05
2.33479e-05
-5.20119e-06
2.64374e-05
2.62659e-06
-3.49355e-05
2.61113e-05
8.43796e-06
5.76719e-05
-1.0543e-05
5.17492e-05
-1.2206e-05
3.35397e-05
6.56071e-07
1.97093e-05
2.22966e-06
3.59555e-05
2.32574e-06
1.0159e-05
5.10577e-06
7.05964e-06
-5.04977e-07
7.31314e-06
6.53876e-09
1.47899e-06
1.39551e-06
2.0658e-06
2.86576e-07
1.65265e-06
5.60407e-07
-6.95031e-06
-2.48178e-06
-4.48202e-06
-2.34442e-07
-0.00990163
-0.00338779
0.000386263
0.00307723
0.00515733
0.0027713
0.00223361
0.0015393
0.00120383
0.00092845
0.000751569
0.000681954
0.000533814
0.000550181
0.000450173
0.000612249
0.000434802
-6.11721e-05
-6.38824e-05
9.4644e-05
-3.10163e-05
-2.7864e-05
-8.52777e-05
-3.7212e-05
-6.02586e-05
-4.08572e-05
-1.88776e-06
-4.32736e-06
-4.57291e-06
2.36056e-06
1.80027e-05
1.76439e-07
7.58739e-06
2.81274e-05
-7.98378e-06
2.54008e-05
-2.00866e-05
1.7521e-05
-1.47621e-05
-1.2328e-06
-8.13992e-06
2.88617e-06
-3.71959e-06
1.27659e-05
-2.58383e-06
1.59347e-05
2.70553e-05
2.78377e-05
2.39817e-05
2.52391e-05
2.72082e-05
1.71625e-05
2.66185e-05
1.10777e-05
1.48338e-05
3.93725e-06
1.15213e-05
5.9906e-07
7.09591e-06
6.66794e-07
5.45016e-06
8.70611e-07
6.16732e-06
5.15691e-06
2.14278e-06
3.61799e-06
3.02137e-06
2.79889e-06
5.00671e-06
6.39272e-06
-1.83105e-07
2.90084e-06
-8.92706e-08
3.02348e-06
-0.0186616
-0.0102474
-0.00254991
0.00185753
0.00361645
0.00248362
0.00197817
0.00139878
0.00100341
0.000631228
0.00040105
0.000194994
6.78825e-05
-2.83794e-05
-3.63604e-05
0.000236754
-0.000279965
-0.00018015
3.2928e-05
0.000128772
6.0521e-05
0.000101137
4.17372e-05
4.95433e-05
3.45615e-05
2.99611e-05
4.89273e-05
-1.35745e-05
1.96916e-05
5.68214e-05
6.51591e-05
5.55685e-05
5.30155e-05
6.70603e-05
3.14573e-05
4.07798e-05
1.49659e-05
2.73238e-05
6.0927e-06
1.08232e-05
-1.16384e-06
4.96651e-06
-7.00224e-06
1.15818e-05
1.3409e-06
-5.4819e-06
9.40461e-06
4.70257e-06
6.6615e-06
1.19339e-06
5.45083e-06
7.65997e-07
9.00629e-06
1.13531e-06
7.07212e-06
3.29927e-06
3.19129e-06
2.73504e-06
7.4555e-06
3.97737e-06
5.03451e-06
1.04323e-06
5.03693e-06
2.90428e-06
1.29363e-06
9.1488e-07
1.1424e-06
1.22818e-07
7.33951e-07
4.78688e-07
-4.83755e-06
-1.94955e-06
-3.6693e-06
-3.96742e-07
-0.00145161
-0.000708282
0.000570891
0.00161209
0.00228482
0.00175475
0.00130877
0.00099097
0.000765269
0.000611894
0.000536312
0.000463351
0.000430043
0.00036936
0.000358185
0.000551571
0.00031529
4.14898e-05
-2.3527e-05
1.76348e-05
-2.06073e-05
-2.70141e-05
-6.37239e-05
-4.43441e-05
-4.82642e-05
-4.72816e-05
-2.93969e-05
5.3211e-07
2.16639e-06
-7.11706e-06
9.38857e-06
-6.97359e-06
6.0795e-06
7.99523e-06
-1.3429e-05
5.60425e-06
-1.09789e-05
7.30947e-06
-4.84181e-06
1.6895e-06
-2.62958e-06
2.99034e-06
2.14147e-06
7.51828e-06
1.57847e-06
4.33548e-06
1.24497e-05
1.38864e-05
1.32449e-05
1.52082e-05
1.7959e-05
1.07163e-05
1.69522e-05
7.93041e-06
9.6428e-06
3.70178e-06
7.99679e-06
4.76613e-07
4.25749e-06
-3.86127e-07
2.47709e-06
1.27333e-06
2.97312e-06
3.78365e-06
1.53006e-06
2.50597e-06
1.99854e-06
2.02059e-06
3.94959e-06
4.38705e-06
3.58652e-07
2.42974e-06
3.49784e-07
2.34116e-06
-0.0035415
-0.00256914
-0.000839358
0.000648334
0.0015106
0.00153462
0.00132824
0.00106091
0.000773867
0.000502151
0.000289085
0.000120584
2.46644e-05
-1.7301e-05
3.48689e-06
0.000100138
-1.25599e-05
-3.48987e-05
6.7046e-05
9.24357e-05
5.42388e-05
5.49209e-05
2.02247e-05
2.75184e-05
1.96543e-05
2.26129e-05
2.73798e-05
-1.62309e-05
-4.17458e-06
1.20333e-05
1.62661e-05
9.4743e-06
1.33277e-05
2.77336e-05
1.81905e-05