/*--------------------------------*- C++ -*----------------------------------*\
| =========                 |                                                 |
| \\      /  F ield         | OpenFOAM: The Open Source CFD Toolbox           |
|  \\    /   O peration     | Version:  2312                                  |
|   \\  /    A nd           | Website:  www.openfoam.com                      |
|    \\/     M anipulation  |                                                 |
\*---------------------------------------------------------------------------*/
FoamFile
{
    version     2.0;
    format      ascii;
    arch        "LSB;label=32;scalar=64";
    class       volScalarField;
    location    "250";
    object      magR;
}
// * * * * * * * * * * * * * * * * * * * * * * * * * * * * * * * * * * * * * //

dimensions      [0 2 -2 0 0 0 0];

internalField   nonuniform List<scalar> 
11040
(
1.58991
3.33592
5.20167
6.93589
8.87601
15.6529
13.8459
12.6526
12.5964
14.3535
19.9956
24.0416
26.9254
29.6208
32.2311
34.4001
35.9193
36.733
36.8878
36.4675
35.4229
33.8514
32.1265
30.446
28.7729
27.0522
25.2728
23.4437
21.5643
19.6308
17.6449
15.6146
13.5549
11.4634
9.20848
6.29724
4.40594
3.2732
2.22095
1.57946
1.03229
0.219416
0.267968
0.440592
1.1236
2.87723
7.99369
15.6454
23.8611
34.2192
46.346
51.7255
49.5762
43.9796
37.9633
32.7386
28.4455
24.9214
22.0255
19.6517
17.6706
16.0279
14.7212
13.6003
12.5807
11.6897
10.9481
10.3332
9.8109
9.3564
8.9545
8.59535
8.27143
7.97327
7.6853
7.36681
6.91116
6.46556
6.04208
5.73304
5.27627
8.8097
0.126338
0.0950658
0.0824905
0.0631866
0.0354371
0.357477
1.4423
3.59036
6.83374
10.9067
15.6508
20.8655
26.0806
30.6101
33.7508
35.0431
34.4798
32.4884
29.748
26.8653
24.162
21.8754
20.079
18.6076
17.3493
16.2664
15.3183
14.4732
13.7107
13.0205
12.3967
11.8352
11.3327
10.8799
10.469
10.0867
9.73847
9.36789
9.05312
8.20992
9.30671
0.0889786
0.0817706
0.0706266
0.0610051
0.0519164
0.0327183
0.018097
0.0184811
0.0940611
0.255258
0.499393
0.842437
1.39885
2.39586
4.07814
6.59584
9.86682
13.5222
17.0036
19.7663
21.4819
22.114
21.9151
21.2297
20.3221
19.3627
18.441
17.5923
16.8275
16.1445
15.5345
14.986
14.4887
14.0304
13.6055
13.2052
12.8376
12.4503
12.1311
11.2458
11.7271
0.0615995
0.0594541
0.0546967
0.0474084
0.041159
0.0358064
0.0267926
0.0148923
0.00595737
0.00164928
0.000189838
0.021183
0.00390562
0.00349362
0.000524542
0.0079502
0.0733919
0.290286
0.825121
1.8854
3.65376
5.98663
8.45101
10.7355
12.649
14.1171
15.154
15.8167
16.1839
16.3343
16.3362
16.2423
16.0913
15.9073
15.707
15.4944
15.2823
15.027
14.8142
14.1781
14.2984
0.0419115
0.0422084
0.0408725
0.0375487
0.0336134
0.0305363
0.0282496
0.0253012
0.0212185
0.0165866
0.0122818
0.00887667
0.00713199
0.0049577
0.00346954
0.000404388
0.00853756
0.000842057
0.000548011
0.00224708
0.0148114
0.0506788
0.228344
0.620427
1.28171
2.23309
3.45241
4.88018
6.4357
8.03184
9.58788
11.0387
12.3373
13.4582
14.3893
15.124
15.6769
16.0368
16.2856
16.1992
16.4142
0.0290805
0.0298412
0.0304374
0.0299221
0.0282743
0.0260137
0.0237805
0.0217953
0.0198382
0.01774
0.0155141
0.013254
0.0110315
0.00947711
0.00833702
0.00724546
0.00617574
0.00504244
0.0035935
0.000819051
0.00399593
0.0160657
0.00793434
0.00582627
0.00547252
0.0162578
0.0329881
0.10482
0.281392
0.614945
1.16178
1.97206
3.07427
4.47272
6.13406
7.9776
9.89085
11.7519
13.4665
14.8134
16.2943
0.0203843
0.0210485
0.0219534
0.0223322
0.0219614
0.0210354
0.0198118
0.0184301
0.016896
0.0152148
0.0134275
0.011605
0.0098753
0.00839945
0.00723686
0.0064128
0.00578036
0.00519905
0.00480473
0.00419409
0.00343412
0.00252427
0.00189656
0.00021277
0.000660239
0.00250777
5.26218e-05
0.017172
0.0269626
0.00102727
0.00931908
0.0243306
0.0707341
0.199273
0.481834
1.0071
1.86508
3.13354
4.84519
6.8131
9.59868
0.0144471
0.0149221
0.0157003
0.016362
0.0166527
0.0165286
0.0160597
0.0153256
0.0143654
0.0131995
0.0118751
0.0104676
0.00907882
0.00782418
0.00677659
0.00595046
0.00530702
0.00480672
0.00439584
0.00408794
0.00383601
0.00348593
0.00308897
0.00276325
0.0023383
0.00191486
0.00140428
0.000863902
4.65734e-05
0.000164395
0.000770035
0.00301066
0.00847885
0.00396787
0.00397353
0.00861483
0.035854
0.121978
0.34855
0.768036
1.82718
0.010304
0.0106206
0.0111788
0.0117688
0.0122212
0.0124472
0.0124274
0.0121818
0.0117266
0.0110743
0.0102514
0.00930566
0.00830651
0.00733868
0.0064711
0.00573735
0.0051353
0.00464423
0.00424103
0.00390507
0.00362239
0.00338733
0.00317512
0.00300262
0.00283724
0.00266796
0.0024831
0.00232513
0.00206942
0.00173142
0.00132047
0.000917378
0.000374914
2.42197e-05
0.000266553
0.000476264
0.00220092
0.00693928
0.0049903
0.00730487
0.0516559
0.00738094
0.00758678
0.00796017
0.00840144
0.00882041
0.0091486
0.00934157
0.0093782
0.00925114
0.00895974
0.00851922
0.00795349
0.00730247
0.00662156
0.00596491
0.00537081
0.00485494
0.00441525
0.00404182
0.00372181
0.00344472
0.0032067
0.00300054
0.00282075
0.00266794
0.00254172
0.00244006
0.00235454
0.00229662
0.00222491
0.00213315
0.0020019
0.00180997
0.0014838
0.00118626
0.00076206
0.00024304
3.60749e-05
0.0002411
0.000260579
0.00220315
0.00529885
0.00543075
0.00567262
0.0059762
0.00629745
0.00659666
0.00683802
0.00699467
0.00704768
0.00698656
0.00681093
0.00652974
0.00616171
0.00573764
0.00529272
0.00485821
0.00445483
0.00409165
0.00376965
0.00348508
0.00323391
0.00301568
0.00282625
0.00265844
0.00251109
0.00238409
0.0022761
0.00218414
0.00210678
0.00204167
0.0019866
0.00193957
0.00190235
0.00186771
0.00181743
0.00172517
0.00154221
0.00122191
0.000771418
0.000471751
2.61244e-05
0.00380768
0.00389163
0.00404635
0.00424766
0.00447475
0.00470756
0.00492432
0.00510438
0.00522989
0.00528629
0.00526639
0.00516882
0.00499965
0.00477307
0.00450791
0.0042245
0.00394032
0.00366733
0.00341205
0.0031766
0.0029623
0.00277295
0.00260736
0.00245996
0.00232893
0.00221343
0.00211213
0.00202303
0.00194403
0.00187343
0.0018097
0.00175204
0.0017
0.00165482
0.00161665
0.00158366
0.0015576
0.00153513
0.00147988
0.0014173
0.00113285
0.00273587
0.002789
0.00288753
0.0030186
0.00317237
0.00333921
0.00350739
0.00366432
0.0037975
0.00389521
0.00394888
0.00395333
0.00390721
0.00381472
0.00368398
0.00352548
0.00335029
0.00316807
0.00298607
0.00280876
0.00264012
0.00248644
0.00234913
0.00222492
0.00211283
0.00201219
0.00192208
0.00184124
0.00176825
0.00170181
0.00164071
0.00158392
0.00153061
0.00148005
0.00143202
0.00138661
0.00134441
0.00130771
0.00127641
0.00124921
0.00123183
0.00196381
0.00199751
0.00206033
0.00214498
0.00224691
0.00236158
0.00248294
0.00260406
0.00271753
0.00281551
0.00289127
0.00293942
0.00295637
0.00294126
0.00289621
0.00282541
0.00273432
0.00262871
0.00251396
0.00239425
0.00227386
0.00215935
0.00205348
0.00195496
0.00186396
0.00178037
0.00170379
0.0016336
0.00156903
0.0015093
0.00145368
0.00140146
0.00135203
0.00130476
0.00125917
0.00121496
0.00117184
0.00112948
0.00108857
0.00104591
0.00101606
0.0014078
0.00142939
0.00146953
0.00152385
0.00159049
0.00166737
0.0017513
0.00183857
0.0019251
0.00200628
0.00207767
0.00213533
0.00217591
0.00219717
0.00219828
0.00218011
0.00214463
0.00209441
0.00203239
0.00196135
0.00188449
0.00180718
0.00173238
0.00166008
0.00159115
0.00152602
0.00146473
0.00140716
0.00135303
0.00130202
0.00125375
0.00120784
0.00116395
0.00112171
0.00108078
0.00104101
0.00100218
0.000963952
0.000926189
0.000887348
0.000853806
0.00101008
0.00102388
0.00104953
0.00108426
0.00112759
0.00117854
0.00123533
0.00129594
0.0013582
0.00141953
0.00147728
0.00152896
0.00157217
0.00160485
0.00162552
0.00163345
0.00162883
0.00161253
0.00158567
0.00154959
0.00150608
0.00145881
0.00141027
0.00136102
0.00131217
0.00126441
0.00121809
0.00117338
0.00113034
0.00108894
0.0010491
0.00101068
0.000973548
0.000937528
0.000902456
0.000868284
0.000834934
0.000802237
0.000770064
0.000737829
0.000708912
0.00073389
0.000742792
0.000759504
0.000782201
0.000810936
0.00084524
0.000884016
0.000926067
0.000970164
0.00101486
0.00105861
0.00109992
0.00113726
0.00116916
0.00119434
0.00121187
0.00122115
0.00122206
0.0012149
0.00120009
0.00117838
0.00115191
0.00112248
0.00109075
0.00105778
0.00102428
0.000990702
0.000957368
0.000924501
0.000892232
0.000860637
0.000829731
0.000799539
0.000770005
0.000741082
0.000712811
0.000685215
0.000658199
0.000631734
0.000605599
0.000581661
0.000545654
0.000551575
0.000562872
0.000578246
0.000597975
0.000621823
0.000649044
0.000678856
0.0007105
0.0007431
0.000775702
0.000807379
0.000837165
0.000864058
0.000887122
0.000905544
0.000918717
0.000926235
0.000927935
0.000923893
0.00091435
0.000900447
0.000883313
0.000863517
0.000841896
0.00081905
0.000795405
0.000771299
0.000746999
0.000722694
0.000698526
0.000674584
0.000650964
0.000627681
0.000604746
0.000582239
0.000560242
0.000538686
0.000517574
0.000496893
0.000477589
0.000415252
0.00041928
0.000427089
0.000437756
0.000451644
0.000468618
0.000488133
0.000509638
0.000532625
0.000556525
0.00058072
0.000604618
0.000627598
0.000648996
0.00066816
0.000684491
0.00069748
0.000706716
0.000711922
0.000712934
0.000709741
0.000702951
0.00069326
0.000681085
0.000667038
0.00065158
0.000635067
0.000617803
0.000600041
0.000581983
0.000563785
0.000545561
0.000527435
0.000509453
0.000491654
0.000474129
0.000456984
0.000440162
0.000423677
0.000407574
0.000392448
0.000321696
0.000324443
0.000329915
0.000337462
0.000347446
0.000359783
0.000374057
0.000389859
0.00040683
0.000424576
0.000442674
0.000460725
0.000478313
0.000494985
0.000510289
0.000523791
0.000535101
0.000543881
0.000549864
0.000552851
0.00055272
0.000549747
0.000544363
0.000536883
0.000527742
0.000517269
0.000505743
0.000493415
0.0004805
0.000467176
0.000453591
0.000439856
0.000426095
0.000412366
0.000398716
0.000385229
0.000372021
0.000359038
0.00034631
0.000333839
0.000322266
0.000252806
0.000254684
0.000258572
0.000264007
0.000271319
0.000280447
0.000291063
0.000302853
0.00031555
0.000328868
0.000342505
0.000356179
0.000369599
0.000382453
0.00039442
0.000405194
0.000414487
0.000422038
0.000427629
0.000431079
0.000432249
0.000431255
0.000428354
0.000423761
0.000417781
0.000410655
0.000402594
0.000393792
0.000384421
0.000374629
0.000364544
0.000354261
0.000343892
0.000333492
0.000323108
0.000312812
0.000302713
0.00029276
0.000282997
0.000273348
0.000264652
0.000200982
0.000202261
0.000205051
0.000209024
0.000214463
0.000221321
0.000229331
0.00023825
0.000247871
0.000257979
0.00026835
0.000278777
0.000289052
0.000298949
0.00030824
0.000316703
0.000324127
0.000330317
0.000335103
0.000338336
0.000339894
0.000339825
0.000338287
0.000335427
0.000331458
0.00032655
0.000320856
0.000314528
0.000307699
0.00030049
0.000293003
0.000285317
0.000277524
0.000269673
0.000261805
0.000253979
0.00024629
0.000238692
0.000231236
0.000223773
0.000217342
0.000161313
0.000162178
0.000164199
0.000167143
0.000171247
0.000176469
0.000182592
0.00018942
0.000196791
0.000204539
0.000212493
0.000220496
0.000228395
0.000236022
0.000243212
0.000249802
0.000255639
0.000260578
0.00026449
0.000267259
0.000268789
0.000269098
0.000268293
0.000266475
0.00026379
0.000260359
0.000256295
0.000251713
0.000246715
0.000241391
0.000235822
0.000230078
0.000224225
0.000218307
0.000212356
0.000206419
0.000200578
0.000194789
0.000189107
0.000183332
0.00017864
0.000130503
0.000131082
0.000132558
0.000134768
0.000137905
0.000141928
0.000146662
0.000151946
0.000157651
0.000163646
0.000169797
0.000175984
0.00018209
0.000187989
0.000193558
0.000198678
0.000203235
0.000207122
0.000210242
0.000212508
0.000213846
0.000214266
0.000213842
0.000212646
0.000210784
0.00020834
0.000205399
0.000202045
0.000198355
0.000194396
0.000190234
0.000185921
0.000181511
0.000177038
0.000172528
0.000168016
0.000163571
0.000159154
0.000154821
0.000150344
0.000146953
0.000106281
0.000106663
0.00010775
0.000109429
0.000111856
0.000114992
0.00011869
0.00012282
0.000127276
0.000131954
0.000136748
0.000141563
0.000146309
0.000150891
0.000155214
0.000159191
0.000162736
0.000165769
0.000168221
0.000170025
0.000171126
0.000171532
0.000171301
0.000170485
0.00016916
0.000167387
0.000165226
0.000162742
0.000159993
0.000157032
0.000153903
0.000150649
0.000147319
0.000143929
0.000140504
0.00013707
0.000133682
0.000130307
0.000126997
0.000123521
0.000121087
8.7039e-05
8.72857e-05
8.80939e-05
8.93876e-05
9.12873e-05
9.37567e-05
9.66738e-05
9.99314e-05
0.000103442
0.000107122
0.000110886
0.000114659
0.00011837
0.000121945
0.000125314
0.000128408
0.000131166
0.000133526
0.000135438
0.000136851
0.000137728
0.000138075
0.00013794
0.000137362
0.000136394
0.000135082
0.000133472
0.00013161
0.000129543
0.000127309
0.000124942
0.000122474
0.000119943
0.000117361
0.000114747
0.000112123
0.000109529
0.000106941
0.000104403
0.000101697
9.99519e-05
7.1617e-05
7.17722e-05
7.23799e-05
7.33903e-05
7.48953e-05
7.68601e-05
7.9183e-05
8.17749e-05
8.45635e-05
8.74797e-05
9.04558e-05
9.34312e-05
9.63496e-05
9.91539e-05
0.000101789
0.000104204
0.000106352
0.000108187
0.000109671
0.000110769
0.000111452
0.000111729
0.00011164
0.000111213
0.000110489
0.000109501
0.000108285
0.000106875
0.000105307
0.000103609
0.000101805
9.99227e-05
9.79874e-05
9.60126e-05
9.40106e-05
9.19971e-05
9.00037e-05
8.80116e-05
8.6059e-05
8.39494e-05
8.26978e-05
5.91611e-05
5.92557e-05
5.97194e-05
6.05206e-05
6.17273e-05
6.33068e-05
6.51735e-05
6.72531e-05
6.94855e-05
7.18137e-05
7.41829e-05
7.65442e-05
7.88528e-05
8.10638e-05
8.31349e-05
8.50268e-05
8.67035e-05
8.81317e-05
8.92835e-05
9.01323e-05
9.06576e-05
9.08702e-05
9.08036e-05
9.04793e-05
8.99272e-05
8.91738e-05
8.82448e-05
8.71672e-05
8.59663e-05
8.46648e-05
8.32832e-05
8.18371e-05
8.03475e-05
7.883e-05
7.72879e-05
7.5735e-05
7.41956e-05
7.26555e-05
7.11458e-05
6.94974e-05
6.85936e-05
4.90338e-05
4.90893e-05
4.94498e-05
5.00957e-05
5.10756e-05
5.23584e-05
5.38723e-05
5.55548e-05
5.73554e-05
5.92275e-05
6.11261e-05
6.30117e-05
6.48484e-05
6.6601e-05
6.82365e-05
6.97247e-05
7.10384e-05
7.21529e-05
7.30474e-05
7.37028e-05
7.41042e-05
7.42631e-05
7.42083e-05
7.39558e-05
7.35285e-05
7.29466e-05
7.22299e-05
7.1399e-05
7.04733e-05
6.94696e-05
6.84044e-05
6.72881e-05
6.61379e-05
6.49647e-05
6.37717e-05
6.25696e-05
6.1376e-05
6.01808e-05
5.9009e-05
5.77194e-05
5.70624e-05
4.07516e-05
4.07834e-05
4.10702e-05
4.16004e-05
4.24066e-05
4.34596e-05
4.46985e-05
4.60708e-05
4.75342e-05
4.905e-05
5.05814e-05
5.20965e-05
5.35663e-05
5.4963e-05
5.62611e-05
5.74373e-05
5.84711e-05
5.93439e-05
6.00406e-05
6.05475e-05
6.0854e-05
6.0971e-05
6.09236e-05
6.07238e-05
6.03892e-05
5.99356e-05
5.93786e-05
5.87336e-05
5.80155e-05
5.72372e-05
5.6411e-05
5.55447e-05
5.46521e-05
5.374e-05
5.28131e-05
5.18783e-05
5.09485e-05
5.00168e-05
4.91032e-05
4.80924e-05
4.7608e-05
3.39441e-05
3.39628e-05
3.41973e-05
3.4641e-05
3.53133e-05
3.61868e-05
3.721e-05
3.83385e-05
3.95366e-05
4.07724e-05
4.20156e-05
4.32404e-05
4.44234e-05
4.55428e-05
4.65786e-05
4.7513e-05
4.83304e-05
4.90171e-05
4.95621e-05
4.99556e-05
5.01901e-05
5.0276e-05
5.02351e-05
5.00764e-05
4.98133e-05
4.94585e-05
4.90238e-05
4.85214e-05
4.79624e-05
4.73567e-05
4.67134e-05
4.60403e-05
4.53448e-05
4.46331e-05
4.3912e-05
4.31831e-05
4.24568e-05
4.1729e-05
4.1015e-05
4.02226e-05
3.98628e-05
2.8324e-05
2.83368e-05
2.85347e-05
2.89134e-05
2.94817e-05
3.02141e-05
3.10668e-05
3.20021e-05
3.29903e-05
3.40045e-05
3.50203e-05
3.60164e-05
3.69743e-05
3.78766e-05
3.87077e-05
3.94541e-05
4.01041e-05
4.06474e-05
4.10762e-05
4.13836e-05
4.15642e-05
4.16274e-05
4.15926e-05
4.1466e-05
4.1258e-05
4.09788e-05
4.06377e-05
4.02441e-05
3.98066e-05
3.93329e-05
3.88298e-05
3.83038e-05
3.77598e-05
3.72035e-05
3.6639e-05
3.60681e-05
3.54986e-05
3.49279e-05
3.43673e-05
3.37453e-05
3.34709e-05
2.36664e-05
2.36782e-05
2.38508e-05
2.41803e-05
2.46672e-05
2.52877e-05
2.60044e-05
2.67856e-05
2.76063e-05
2.84443e-05
2.92795e-05
3.00946e-05
3.08749e-05
3.16065e-05
3.22775e-05
3.28774e-05
3.33976e-05
3.38305e-05
3.41706e-05
3.44132e-05
3.45545e-05
3.46028e-05
3.45751e-05
3.44758e-05
3.43132e-05
3.40952e-05
3.38294e-05
3.35227e-05
3.31819e-05
3.28128e-05
3.24209e-05
3.20108e-05
3.15865e-05
3.11524e-05
3.07113e-05
3.0265e-05
2.98193e-05
2.93723e-05
2.89329e-05
2.84452e-05
2.82387e-05
1.97937e-05
1.98076e-05
1.99631e-05
2.02551e-05
2.06775e-05
2.12081e-05
2.18154e-05
2.24727e-05
2.31588e-05
2.38556e-05
2.45466e-05
2.52178e-05
2.58573e-05
2.64544e-05
2.69996e-05
2.74851e-05
2.79043e-05
2.82519e-05
2.85239e-05
2.87171e-05
2.88288e-05
2.88663e-05
2.88441e-05
2.87656e-05
2.8637e-05
2.84649e-05
2.82554e-05
2.8014e-05
2.77459e-05
2.74557e-05
2.71475e-05
2.68253e-05
2.64919e-05
2.61509e-05
2.58038e-05
2.54532e-05
2.51025e-05
2.47508e-05
2.44043e-05
2.40223e-05
2.3856e-05
1.65646e-05
1.65827e-05
1.67266e-05
1.69895e-05
1.736e-05
1.78177e-05
1.83359e-05
1.88923e-05
1.94695e-05
2.00523e-05
2.06275e-05
2.11838e-05
2.17114e-05
2.2202e-05
2.26482e-05
2.30442e-05
2.33852e-05
2.36674e-05
2.38882e-05
2.40457e-05
2.4138e-05
2.41716e-05
2.4159e-05
2.41024e-05
2.40066e-05
2.38768e-05
2.37178e-05
2.35337e-05
2.33284e-05
2.31057e-05
2.28686e-05
2.262e-05
2.23624e-05
2.20982e-05
2.18286e-05
2.15563e-05
2.12829e-05
2.10083e-05
2.07379e-05
2.04386e-05
2.03187e-05
1.38663e-05
1.38894e-05
1.40256e-05
1.4265e-05
1.45925e-05
1.49898e-05
1.54347e-05
1.59085e-05
1.63967e-05
1.6887e-05
1.73686e-05
1.78324e-05
1.82707e-05
1.86767e-05
1.9045e-05
1.93708e-05
1.96506e-05
1.98816e-05
2.0062e-05
2.01904e-05
2.02654e-05
2.02921e-05
2.02816e-05
2.02356e-05
2.0158e-05
2.00533e-05
1.99256e-05
1.97783e-05
1.96147e-05
1.94378e-05
1.925e-05
1.90536e-05
1.88505e-05
1.86424e-05
1.84307e-05
1.82165e-05
1.80014e-05
1.7786e-05
1.75728e-05
1.73417e-05
1.72318e-05
1.16073e-05
1.16361e-05
1.1767e-05
1.19866e-05
1.22774e-05
1.26232e-05
1.30062e-05
1.34112e-05
1.38263e-05
1.42413e-05
1.46471e-05
1.50364e-05
1.5403e-05
1.57417e-05
1.60483e-05
1.63195e-05
1.65529e-05
1.67465e-05
1.68997e-05
1.7012e-05
1.70828e-05
1.71165e-05
1.71221e-05
1.71005e-05
1.7054e-05
1.69861e-05
1.68994e-05
1.67965e-05
1.66798e-05
1.65513e-05
1.6413e-05
1.62666e-05
1.61137e-05
1.5956e-05
1.57945e-05
1.56299e-05
1.54641e-05
1.52971e-05
1.51327e-05
1.49488e-05
1.48875e-05
9.71378e-06
9.74805e-06
9.875e-06
1.00772e-05
1.03357e-05
1.06368e-05
1.09662e-05
1.13123e-05
1.16656e-05
1.20182e-05
1.23625e-05
1.26922e-05
1.30018e-05
1.3287e-05
1.35444e-05
1.37715e-05
1.39663e-05
1.4127e-05
1.42526e-05
1.43426e-05
1.43957e-05
1.4416e-05
1.44116e-05
1.43841e-05
1.43363e-05
1.42716e-05
1.41932e-05
1.41034e-05
1.40044e-05
1.38979e-05
1.37855e-05
1.36685e-05
1.35478e-05
1.34249e-05
1.32999e-05
1.31735e-05
1.30463e-05
1.29193e-05
1.27921e-05
1.26609e-05
1.25752e-05
8.12555e-06
8.16411e-06
8.28651e-06
8.47189e-06
8.70128e-06
8.96361e-06
9.24747e-06
9.54318e-06
9.84338e-06
1.0142e-05
1.04338e-05
1.07138e-05
1.09777e-05
1.12216e-05
1.14425e-05
1.16385e-05
1.1809e-05
1.1954e-05
1.20741e-05
1.21699e-05
1.22413e-05
1.22904e-05
1.23229e-05
1.23379e-05
1.23359e-05
1.23187e-05
1.22874e-05
1.22436e-05
1.21884e-05
1.21233e-05
1.20495e-05
1.19685e-05
1.18815e-05
1.17899e-05
1.16944e-05
1.15953e-05
1.14948e-05
1.13923e-05
1.12925e-05
1.11731e-05
1.11647e-05
6.79458e-06
6.83602e-06
6.95173e-06
7.11777e-06
7.31729e-06
7.54326e-06
7.78763e-06
8.04234e-06
8.30038e-06
8.55567e-06
8.80323e-06
9.03957e-06
9.26223e-06
9.46892e-06
9.65703e-06
9.82348e-06
9.96521e-06
1.00797e-05
1.01655e-05
1.02229e-05
1.02513e-05
1.02548e-05
1.02411e-05
1.02128e-05
1.01731e-05
1.0125e-05
1.00711e-05
1.00133e-05
9.95278e-06
9.89063e-06
9.82765e-06
9.7644e-06
9.70094e-06
9.63775e-06
9.57484e-06
9.51208e-06
9.44888e-06
9.38703e-06
9.3219e-06
9.26832e-06
9.17867e-06
5.68117e-06
5.7253e-06
5.83372e-06
5.9786e-06
6.14532e-06
6.33112e-06
6.53271e-06
6.74619e-06
6.9672e-06
7.19022e-06
7.4089e-06
7.61735e-06
7.81148e-06
7.98969e-06
8.15286e-06
8.30341e-06
8.44403e-06
8.5765e-06
8.70131e-06
8.81745e-06
8.92335e-06
9.01714e-06
9.09988e-06
9.16784e-06
9.21963e-06
9.25528e-06
9.27521e-06
9.28013e-06
9.27111e-06
9.24953e-06
9.2168e-06
9.17426e-06
9.12362e-06
9.06599e-06
9.00304e-06
8.93487e-06
8.86404e-06
8.78943e-06
8.71952e-06
8.61841e-06
8.67051e-06
4.74953e-06
4.79451e-06
4.89572e-06
5.02301e-06
5.16254e-06
5.31205e-06
5.46929e-06
5.63296e-06
5.80317e-06
5.98009e-06
6.16257e-06
6.34721e-06
6.52792e-06
6.69654e-06
6.84433e-06
6.96399e-06
7.05116e-06
7.10511e-06
7.1281e-06
7.12522e-06
7.09888e-06
7.05604e-06
7.00477e-06
6.95014e-06
6.89545e-06
6.84313e-06
6.79491e-06
6.75198e-06
6.71501e-06
6.68418e-06
6.65936e-06
6.64025e-06
6.62609e-06
6.61635e-06
6.61073e-06
6.60882e-06
6.60735e-06
6.60992e-06
6.6053e-06
6.63542e-06
6.51862e-06
3.96899e-06
4.00571e-06
4.08995e-06
4.19607e-06
4.31548e-06
4.44684e-06
4.58501e-06
4.72367e-06
4.85799e-06
4.98573e-06
5.10799e-06
5.22908e-06
5.3554e-06
5.49357e-06
5.64865e-06
5.82283e-06
6.01486e-06
6.22018e-06
6.43211e-06
6.642e-06
6.84479e-06
7.03316e-06
7.20282e-06
7.34773e-06
7.46632e-06
7.5592e-06
7.62771e-06
7.67359e-06
7.69884e-06
7.70554e-06
7.6957e-06
7.67109e-06
7.63378e-06
7.58507e-06
7.52662e-06
7.45883e-06
7.38534e-06
7.30344e-06
7.22766e-06
7.10027e-06
7.20222e-06
3.32321e-06
3.34482e-06
3.39604e-06
3.45592e-06
3.52605e-06
3.61566e-06
3.72896e-06
3.86514e-06
4.01839e-06
4.17784e-06
4.32917e-06
4.45763e-06
4.55116e-06
4.60292e-06
4.61249e-06
4.58546e-06
4.53147e-06
4.4616e-06
4.38548e-06
4.31211e-06
4.23944e-06
4.1686e-06
4.09893e-06
4.03435e-06
3.97563e-06
3.92336e-06
3.87909e-06
3.8449e-06
3.82243e-06
3.81226e-06
3.81429e-06
3.82836e-06
3.85385e-06
3.89026e-06
3.93704e-06
3.99408e-06
4.05742e-06
4.13116e-06
4.19982e-06
4.32279e-06
4.24499e-06
2.80971e-06
2.83465e-06
2.87306e-06
2.89646e-06
2.90405e-06
2.90624e-06
2.91219e-06
2.93103e-06
2.97333e-06
3.0508e-06
3.17484e-06
3.35394e-06
3.59091e-06
3.88126e-06
4.21381e-06
4.57267e-06
4.94003e-06
5.29856e-06
5.63412e-06
5.93332e-06
6.19734e-06
6.42594e-06
6.61417e-06
6.76266e-06
6.8764e-06
6.96093e-06
7.02003e-06
7.06004e-06
7.08194e-06
7.09113e-06
7.09032e-06
7.07975e-06
7.05986e-06
7.03034e-06
6.99235e-06
6.94611e-06
6.89403e-06
6.83286e-06
6.77332e-06
6.68661e-06
6.69635e-06
2.4107e-06
2.45334e-06
2.51828e-06
2.57344e-06
2.60401e-06
2.60543e-06
2.57606e-06
2.51955e-06
2.44592e-06
2.37004e-06
2.30904e-06
2.27864e-06
2.2891e-06
2.34213e-06
2.43072e-06
2.54185e-06
2.66049e-06
2.77318e-06
2.8702e-06
2.94642e-06
2.9972e-06
3.02159e-06
3.0093e-06
2.97249e-06
2.92008e-06
2.8573e-06
2.79187e-06
2.73817e-06
2.70949e-06
2.70176e-06
2.70393e-06
2.71146e-06
2.72327e-06
2.73854e-06
2.75665e-06
2.77589e-06
2.79771e-06
2.8139e-06
2.85364e-06
2.79209e-06
3.12128e-06
2.07646e-06
2.06857e-06
2.13596e-06
2.35144e-06
2.74645e-06
3.28755e-06
3.9091e-06
4.55011e-06
5.16547e-06
5.72461e-06
6.20812e-06
6.60486e-06
6.91056e-06
7.12607e-06
7.25638e-06
7.30966e-06
7.29628e-06
7.22758e-06
7.1151e-06
6.96825e-06
6.79831e-06
6.64611e-06
6.4874e-06
6.33245e-06
6.18474e-06
6.04394e-06
5.91424e-06
5.77535e-06
5.62379e-06
5.47224e-06
5.32393e-06
5.17837e-06
5.0329e-06
4.88365e-06
4.72934e-06
4.56814e-06
4.39721e-06
4.2142e-06
4.00482e-06
3.86566e-06
3.37065e-06
31.938
29.7509
24.2736
20.3809
17.4926
15.0338
12.7974
10.7224
8.78469
6.99513
5.36236
3.90586
2.65334
1.63428
0.876296
0.383351
0.117493
0.0198617
0.000345715
0.00147786
0.0002389
1.16261e-05
3.6002e-05
6.68907e-05
9.08863e-05
8.80749e-05
7.3533e-05
6.10482e-05
5.41825e-05
4.94138e-05
4.48221e-05
4.00398e-05
3.52965e-05
3.07905e-05
2.66137e-05
2.28163e-05
1.94529e-05
1.65394e-05
1.40827e-05
1.20474e-05
1.03934e-05
9.06252e-06
7.99999e-06
7.13166e-06
6.41846e-06
5.63574e-06
4.99393e-06
4.53845e-06
4.10348e-06
3.66181e-06
3.22777e-06
2.82296e-06
2.45128e-06
2.11983e-06
1.82752e-06
1.57987e-06
1.37739e-06
1.21448e-06
1.11777e-06
1.06523e-06
1.048e-06
1.06933e-06
1.11342e-06
1.17824e-06
1.25174e-06
1.33034e-06
1.41311e-06
1.49402e-06
1.58223e-06
1.65462e-06
1.76204e-06
1.79049e-06
1.97302e-06
1.89718e-06
18.257
28.6537
27.8278
24.6206
21.6261
19.065
16.7944
14.7005
12.7206
10.8337
9.03191
7.32018
5.71593
4.24733
2.95048
1.86672
1.0287
0.464972
0.152622
0.0299268
0.00140319
0.00129556
0.000427833
6.3286e-05
2.96248e-06
3.80401e-05
6.44837e-05
6.90322e-05
6.25738e-05
5.29742e-05
4.57836e-05
4.04301e-05
3.58586e-05
3.15976e-05
2.75454e-05
2.37301e-05
2.02349e-05
1.71276e-05
1.44611e-05
1.22432e-05
1.0446e-05
9.01276e-06
7.88332e-06
6.97581e-06
6.26961e-06
5.35344e-06
4.74809e-06
4.24215e-06
3.81237e-06
3.40793e-06
3.00784e-06
2.63063e-06
2.28222e-06
1.97375e-06
1.70399e-06
1.48036e-06
1.29739e-06
1.17594e-06
1.10259e-06
1.05437e-06
1.04067e-06
1.06385e-06
1.11108e-06
1.17753e-06
1.25298e-06
1.33317e-06
1.4172e-06
1.49935e-06
1.58817e-06
1.66244e-06
1.76822e-06
1.80201e-06
1.97546e-06
1.91358e-06
4.45981
11.2222
17.2588
19.1633
19.0311
18.1208
16.9613
15.7112
14.3951
13.0171
11.5856
10.1154
8.62667
7.14448
5.69974
4.33073
3.07999
2.00063
1.14147
0.539306
0.190898
0.0435896
0.00358228
0.00020231
0.000141473
1.77233e-05
8.61823e-08
2.46034e-05
4.57304e-05
5.30158e-05
5.26723e-05
4.6294e-05
3.91153e-05
3.31913e-05
2.84471e-05
2.44442e-05
2.09287e-05
1.77979e-05
1.50312e-05
1.26481e-05
1.06599e-05
9.05618e-06
7.80073e-06
6.82052e-06
6.08045e-06
5.40561e-06
4.75291e-06
4.1695e-06
3.70513e-06
3.31075e-06
2.93634e-06
2.57608e-06
2.23846e-06
1.93536e-06
1.67023e-06
1.44959e-06
1.27279e-06
1.16895e-06
1.09126e-06
1.04623e-06
1.0362e-06
1.06009e-06
1.11048e-06
1.17809e-06
1.2554e-06
1.33714e-06
1.42232e-06
1.50568e-06
1.59503e-06
1.67131e-06
1.77514e-06
1.81458e-06
1.97834e-06
1.931e-06
12.7183
8.48776
5.37647
7.15533
9.55622
11.0689
11.8943
12.276
12.3228
12.0854
11.604
10.9173
10.0588
9.05738
7.94278
6.75058
5.52077
4.30062
3.14246
2.10389
1.24703
0.621985
0.241091
0.0649478
0.00901969
1.50183e-06
0.00098424
2.4647e-06
1.0495e-05
6.72578e-06
2.67472e-05
3.42779e-05
3.8702e-05
3.7769e-05
3.25993e-05
2.7008e-05
2.2315e-05
1.8528e-05
1.54447e-05
1.29349e-05
1.08812e-05
9.19775e-06
7.83384e-06
6.74415e-06
5.89357e-06
5.35436e-06
4.79117e-06
4.2188e-06
3.73035e-06
3.3295e-06
2.9728e-06
2.62909e-06
2.29845e-06
1.99179e-06
1.719e-06
1.48707e-06
1.29794e-06
1.16806e-06
1.08128e-06
1.03884e-06
1.03337e-06
1.05928e-06
1.11142e-06
1.18045e-06
1.2595e-06
1.34273e-06
1.429e-06
1.51352e-06
1.6033e-06
1.68139e-06
1.7835e-06
1.82806e-06
1.983e-06
1.94831e-06
16.5963
16.0175
12.9761
9.07905
5.58991
3.44131
3.47292
4.74136
6.0936
7.20248
8.00604
8.50827
8.723
8.66519
8.35436
7.81988
7.09694
6.22426
5.24532
4.20918
3.17327
2.20171
1.36567
0.723795
0.309981
0.0943425
0.0173468
0.000462223
6.64263e-06
5.6733e-05
5.30806e-05
2.31132e-05
1.24227e-05
2.12017e-05
2.60068e-05
2.85612e-05
2.65422e-05
2.21491e-05
1.7721e-05
1.40877e-05
1.12713e-05
9.18074e-06
7.67051e-06
6.56607e-06
5.70365e-06
5.14915e-06
4.65385e-06
4.12964e-06
3.63135e-06
3.21101e-06
2.86326e-06
2.55119e-06
2.25298e-06
1.96775e-06
1.70681e-06
1.48106e-06
1.29807e-06
1.15411e-06
1.06628e-06
1.03086e-06
1.03218e-06
1.0615e-06
1.11466e-06
1.18467e-06
1.26509e-06
1.3498e-06
1.43719e-06
1.52282e-06
1.61296e-06
1.69273e-06
1.79329e-06
1.84238e-06
1.98946e-06
1.96591e-06
18.0346
18.5706
17.9099
16.313
14.0132
11.3272
8.59481
6.01026
3.71821
2.00202
1.81389
2.91267
4.11188
5.11678
5.85774
6.31966
6.50621
6.42888
6.10903
5.57872
4.87931
4.05945
3.17766
2.30001
1.50285
0.855264
0.402224
0.143516
0.0347304
0.00313715
0.000108222
0.000224245
1.71027e-05
8.42651e-06
1.38159e-06
1.16748e-05
1.47451e-05
1.71389e-05
1.84168e-05
1.70356e-05
1.40262e-05
1.09452e-05
8.41998e-06
6.58497e-06
5.34711e-06
4.64175e-06
4.22384e-06
3.86685e-06
3.47848e-06
3.08267e-06
2.72473e-06
2.41368e-06
2.13575e-06
1.87804e-06
1.64131e-06
1.43294e-06
1.26307e-06
1.12839e-06
1.04924e-06
1.02313e-06
1.03351e-06
1.06804e-06
1.12246e-06
1.19237e-06
1.27315e-06
1.3589e-06
1.44732e-06
1.53403e-06
1.62445e-06
1.70578e-06
1.80483e-06
1.85786e-06
1.99785e-06
1.98468e-06
16.9417
16.8599
16.6289
16.3375
15.8439
15.0472
13.8981
12.4117
10.6584
8.73299
6.74746
4.80258
2.98486
1.44818
1.04834
2.03239
3.0775
3.93063
4.53538
4.87515
4.95232
4.78236
4.39355
3.82659
3.13504
2.38537
1.65182
1.0123
0.526912
0.218602
0.06742
0.0127846
0.000353061
1.15294e-05
7.64549e-05
7.4203e-05
2.78347e-05
3.05817e-06
7.26074e-06
7.40392e-06
8.85747e-06
1.02755e-05
9.98174e-06
8.39568e-06
6.53295e-06
5.00266e-06
3.974e-06
3.36346e-06
2.99421e-06
2.72332e-06
2.48145e-06
2.24605e-06
2.01287e-06
1.78217e-06
1.56307e-06
1.36814e-06
1.2109e-06
1.09527e-06
1.03036e-06
1.01494e-06
1.03626e-06
1.07889e-06
1.13638e-06
1.20589e-06
1.28564e-06
1.37128e-06
1.46015e-06
1.54769e-06
1.63827e-06
1.72091e-06
1.81853e-06
1.87478e-06
2.00843e-06
2.00511e-06
10.1106
9.77682
9.54835
9.58743
9.83343
10.2392
10.69
11.053
11.1966
11.0238
10.4894
9.60308
8.41799
7.01049
5.47442
3.9085
2.3995
1.06582
0.715235
1.62462
2.49825
3.17238
3.60821
3.79393
3.73643
3.45932
3.00228
2.42258
1.79128
1.18823
0.684456
0.33066
0.123754
0.0328806
0.00397139
6.77015e-05
0.000286356
2.3358e-06
2.67231e-06
6.3476e-06
6.44936e-06
4.10453e-06
3.15236e-06
3.33196e-06
4.5923e-06
5.28225e-06
4.89311e-06
4.05304e-06
3.22421e-06
2.58174e-06
2.14961e-06
1.87979e-06
1.70828e-06
1.57533e-06
1.44366e-06
1.30403e-06
1.17262e-06
1.07127e-06
1.01635e-06
1.01071e-06
1.04344e-06
1.096e-06
1.1582e-06
1.22719e-06
1.30418e-06
1.38784e-06
1.47612e-06
1.56423e-06
1.65498e-06
1.73873e-06
1.83495e-06
1.89348e-06
2.02148e-06
2.02753e-06
2.10026
2.01734
1.94967
1.97263
2.08374
2.30054
2.65833
3.17451
3.84642
4.64369
5.49985
6.31407
6.96843
7.35319
7.39219
7.06048
6.38652
5.43241
4.28866
3.05677
1.82874
0.719504
0.594796
1.4057
2.10257
2.59747
2.86368
2.89729
2.71531
2.35643
1.87804
1.35645
0.869455
0.479001
0.216875
0.0764324
0.0186528
0.001719
0.000324211
0.000597098
8.50557e-05
2.36356e-06
4.70889e-06
4.32504e-06
2.20398e-06
4.06151e-06
3.46656e-06
1.89054e-06
2.53096e-06
2.92517e-06
2.66428e-06
2.16365e-06
1.71704e-06
1.42582e-06
1.25784e-06
1.15379e-06
1.08125e-06
1.02743e-06
9.9722e-07
1.00151e-06
1.04419e-06
1.11161e-06
1.18729e-06
1.26206e-06
1.33699e-06
1.41519e-06
1.49855e-06
1.5843e-06
1.67411e-06
1.75879e-06
1.85417e-06
1.91432e-06
2.03753e-06
2.05248e-06
0.0663485
0.0576934
0.0495631
0.0463775
0.0469449
0.0515435
0.0643282
0.0919951
0.14563
0.24419
0.413916
0.689966
1.1015
1.66308