/*--------------------------------*- C++ -*----------------------------------*\
| =========                 |                                                 |
| \\      /  F ield         | OpenFOAM: The Open Source CFD Toolbox           |
|  \\    /   O peration     | Version:  2312                                  |
|   \\  /    A nd           | Website:  www.openfoam.com                      |
|    \\/     M anipulation  |                                                 |
\*---------------------------------------------------------------------------*/
FoamFile
{
    version     2.0;
    format      ascii;
    arch        "LSB;label=32;scalar=64";
    class       volVectorField;
    location    "250";
    object      momentError;
}
// * * * * * * * * * * * * * * * * * * * * * * * * * * * * * * * * * * * * * //

dimensions      [0 1 -2 0 0 0 0];

internalField   nonuniform List<vector> 
11040
(
(-1.92935 6.62293 -2.4837e-14)
(-1.21465 -2.78269 5.60016e-14)
(-5.71297 -21.4521 2.8723e-13)
(-13.1181 -25.3863 1.12761e-13)
(-11.8644 -13.1479 -2.09859e-14)
(-2.86027 -0.352998 8.31379e-15)
(3.84822 4.08426 -1.28528e-13)
(-0.815323 0.109507 -5.40378e-14)
(22.932 12.7041 8.55514e-14)
(-96.9837 -64.7361 5.09419e-14)
(-303.485 -124.961 8.69044e-14)
(-243.593 -58.1443 1.1359e-13)
(-133.02 -11.0646 -3.80994e-14)
(-58.0886 4.22248 -5.82293e-14)
(-25.5158 4.49476 -2.88217e-14)
(-11.6166 2.82631 3.97626e-15)
(-6.47548 1.31829 -4.09979e-15)
(-4.44466 0.551058 6.91663e-16)
(-3.48426 0.235482 -8.12421e-17)
(-3.00346 0.131504 -6.56782e-16)
(-2.42039 0.0950551 -3.64814e-15)
(-2.49789 0.124234 4.52036e-15)
(-2.20677 0.143191 6.70391e-15)
(-2.49023 0.172238 1.18351e-14)
(-2.71506 0.171905 6.60721e-15)
(-2.16905 0.180716 -1.37992e-14)
(-2.10964 0.182867 -4.75684e-15)
(-2.02849 0.191884 -8.66824e-15)
(-1.95343 0.199787 -1.01672e-15)
(-1.90504 0.21026 1.03294e-15)
(-1.81672 0.217006 1.26684e-14)
(-1.78907 0.267033 4.41986e-15)
(-1.71394 0.575645 7.72504e-15)
(-0.998147 2.30993 1.29861e-14)
(5.51245 7.91637 3.89891e-16)
(27.8261 6.53824 6.01617e-15)
(33.2684 -1.80362 2.04697e-15)
(27.2234 -5.46106 -4.53264e-16)
(15.3201 -5.08542 -2.85591e-19)
(2.75213 -2.26612 1.50245e-17)
(-0.482018 0.172355 1.37599e-16)
(-0.941317 2.66633 1.74595e-14)
(-1.38067 9.13418 5.09373e-14)
(-8.14354 11.2934 -1.11276e-13)
(-20.7509 7.56228 -3.03797e-13)
(-30.2212 -2.46777 -1.87005e-14)
(-30.228 -9.51258 -3.49702e-14)
(-16.6977 -6.24359 -3.0968e-13)
(11.6483 16.5893 -2.26271e-13)
(24.1543 7.54184 8.17339e-14)
(99.1902 22.7972 -3.68261e-14)
(164.833 40.0835 1.02158e-14)
(99.2652 27.8837 -1.24539e-14)
(44.3823 16.8898 9.89092e-14)
(15.6635 8.95212 3.04632e-14)
(3.62899 4.47189 1.34946e-14)
(-1.51477 2.19525 -1.54776e-14)
(-3.64383 1.04892 -8.66531e-15)
(-4.30822 0.521976 -2.57947e-15)
(-4.15311 0.284194 2.23695e-15)
(-3.90992 0.204139 -7.18619e-16)
(-3.68821 0.176579 1.31826e-15)
(-3.73448 0.208746 -4.76353e-15)
(-3.68255 0.248832 -3.78004e-15)
(-4.26748 0.25028 1.3203e-14)
(-4.08186 0.306655 9.17637e-15)
(-3.38508 0.303104 1.86693e-15)
(-3.26033 0.311999 -1.18667e-14)
(-3.16995 0.329644 2.22661e-15)
(-3.09978 0.346981 -2.14365e-15)
(-3.03372 0.361983 -6.4175e-15)
(-2.97536 0.373682 1.39994e-15)
(-2.90222 0.385162 -7.50473e-15)
(-2.86533 0.441577 -2.55314e-15)
(-3.1294 0.680717 -2.30679e-15)
(-6.26321 1.28033 2.79084e-15)
(-22.0004 1.72605 -2.3469e-16)
(-26.9047 1.29805 -1.82984e-15)
(-21.9448 0.582402 6.61854e-16)
(-12.3375 -0.14538 -6.44009e-18)
(-2.94035 -0.452405 -8.26065e-17)
(-0.971096 -0.668001 2.28827e-16)
(-1.29462 3.5338 1.17123e-14)
(0.409242 1.70157 -6.60114e-14)
(2.62908 0.582917 -8.55114e-14)
(3.54697 7.47916 1.60842e-13)
(1.99526 11.5172 1.32049e-14)
(-4.13035 6.81916 -1.30118e-13)
(-11.9812 1.37163 7.86087e-14)
(-9.11609 -2.05161 1.95817e-13)
(3.09197 -0.846897 -3.29751e-14)
(2.95339 -4.2722 -1.85612e-14)
(0.796964 -7.38777 1.51666e-14)
(-21.8608 -10.103 -4.24133e-14)
(-26.4042 -5.7008 -7.51428e-14)
(-22.0428 -2.77748 1.84221e-14)
(-16.5714 -1.43914 5.13552e-15)
(-11.2731 -0.591419 1.53276e-14)
(-7.45942 -0.0462167 2.68006e-15)
(-5.50045 0.277034 6.15523e-15)
(-4.49308 0.428104 9.21689e-15)
(-4.24447 0.470541 -1.52673e-16)
(-4.09098 0.437787 1.32458e-16)
(-4.51856 0.439413 4.40719e-15)
(-4.45962 0.402716 1.54502e-15)
(-4.83479 0.369806 -6.10358e-15)
(-5.5187 0.353862 -9.87561e-15)
(-4.24892 0.367715 -6.00751e-15)
(-4.01346 0.378058 7.27795e-15)
(-3.86751 0.400189 -2.86344e-15)
(-3.77236 0.423572 3.23963e-15)
(-3.70499 0.446619 -1.73841e-16)
(-3.61807 0.458593 -1.47602e-15)
(-3.55438 0.474429 6.36728e-15)
(-3.52714 0.516623 -4.56064e-15)
(-3.68774 0.651198 3.42898e-15)
(-4.23129 0.837551 4.56264e-16)
(-5.25342 0.690408 -4.51346e-15)
(-5.03461 0.298575 4.61004e-16)
(-4.21928 -0.0816704 7.55849e-16)
(-3.26346 -0.1737 5.65198e-16)
(-1.85499 -0.155777 -1.03232e-16)
(-1.45111 -0.164636 -1.59012e-16)
(-1.17173 2.6819 -2.13341e-15)
(-0.696234 2.48801 3.13941e-14)
(-1.43114 2.10505 2.59045e-14)
(-1.99893 4.36855 -7.75735e-14)
(1.18615 8.91993 -2.98804e-14)
(5.83876 12.6618 1.25183e-13)
(7.48923 12.9744 7.28725e-14)
(6.19046 8.71766 -2.9887e-14)
(3.6193 2.16861 1.36922e-14)
(0.147728 -2.80723 -2.86432e-14)
(-6.62918 -6.1033 -5.47225e-14)
(-12.1274 -6.14182 2.8305e-14)
(-13.3027 -3.20934 3.1617e-14)
(-12.2573 -1.39792 9.30446e-15)
(-11.3374 -0.83729 3.12673e-14)
(-10.9844 -0.811983 -8.02201e-15)
(-11.2177 -0.857721 -1.8544e-14)
(-11.2125 -0.707759 -9.59718e-15)
(-10.5992 -0.485922 1.10737e-15)
(-9.40153 -0.215071 -4.34181e-15)
(-7.63715 0.0421781 7.24894e-16)
(-6.75612 0.244523 -2.90289e-15)
(-5.66702 0.359179 -3.70751e-15)
(-5.54186 0.392699 -6.06765e-15)
(-5.47688 0.422641 -5.19691e-15)
(-4.8615 0.470803 -5.80661e-15)
(-4.63994 0.491337 -9.4792e-15)
(-4.49072 0.510301 -4.46087e-16)
(-4.37626 0.522875 -1.52148e-15)
(-4.27841 0.531738 7.86427e-15)
(-4.15835 0.528781 4.31759e-15)
(-4.05872 0.529551 3.1538e-15)
(-3.98396 0.555597 9.68765e-15)
(-3.97313 0.63741 -9.0485e-17)
(-3.94807 0.74564 -1.42917e-15)
(-3.87681 0.726727 4.28931e-16)
(-3.39727 0.567086 2.07147e-17)
(-2.65405 0.313049 3.07753e-16)
(-2.0483 0.132817 1.87398e-17)
(-1.54086 0.00162737 -8.76147e-17)
(-1.4115 -0.106911 -1.53957e-16)
(-1.04808 2.2827 2.01033e-15)
(-0.807151 2.27428 -9.80794e-15)
(-0.463148 1.80232 1.78313e-14)
(-0.938117 2.01895 1.17996e-13)
(-1.03085 3.43958 1.966e-14)
(0.87036 5.46156 -6.99577e-14)
(4.1343 6.69561 4.90893e-14)
(6.51979 5.8364 -1.4914e-14)
(7.04633 2.91213 7.22951e-15)
(6.44054 -0.694368 7.04288e-14)
(6.15388 -3.05654 8.55034e-14)
(5.56468 -2.98382 2.05026e-14)
(3.8997 -1.12367 3.63332e-16)
(3.84324 0.543693 -1.7402e-14)
(2.98021 0.985429 -2.25719e-14)
(2.28774 0.949762 -2.01767e-15)
(1.1406 0.725504 -1.52847e-14)
(-0.209137 0.564916 1.14106e-14)
(-1.30079 0.439204 -1.86734e-15)
(-3.05594 0.338118 -6.16214e-16)
(-4.26299 0.142967 3.24997e-16)
(-5.63996 0.0809178 4.14107e-15)
(-6.22496 0.142973 4.97197e-15)
(-6.71173 0.165453 -8.28375e-15)
(-7.10392 0.252803 -6.86869e-16)
(-6.53951 0.351147 1.35997e-14)
(-5.89748 0.41389 5.87763e-15)
(-5.47243 0.475567 4.97752e-15)
(-5.10117 0.52868 3.1246e-15)
(-4.82452 0.56998 -6.77205e-15)
(-4.59675 0.589125 -5.64939e-15)
(-4.4409 0.601431 7.14601e-16)
(-4.34647 0.62993 -4.12688e-15)
(-4.2862 0.68881 5.1764e-16)
(-4.13136 0.753873 9.94059e-18)
(-3.82102 0.735468 1.27523e-15)
(-3.35109 0.622189 1.107e-15)
(-2.75614 0.421771 -8.51277e-16)
(-2.30812 0.233529 -3.49916e-16)
(-1.94561 0.0798959 2.74274e-16)
(-1.7385 -0.0760812 -2.494e-16)
(-0.831825 1.88051 1.87086e-16)
(-0.691308 1.94328 3.20338e-15)
(-0.519718 1.79228 -4.81021e-15)
(-0.598375 2.01402 -4.94743e-14)
(-0.694442 2.67727 1.12936e-14)
(-0.289454 3.40853 4.03208e-14)
(0.901866 3.65856 -4.37402e-14)
(2.42028 2.97444 1.14998e-14)
(3.47668 1.14553 -3.57273e-14)
(3.75726 -0.942634 -7.17322e-15)
(3.68572 -1.99156 -5.57674e-14)
(3.3327 -1.59802 -2.07425e-14)
(3.40433 -0.499101 1.47572e-14)
(2.36841 0.446667 -8.72818e-15)
(2.49158 0.846216 -2.88325e-15)
(2.63609 0.801435 3.86729e-14)
(2.69212 0.587266 6.63707e-15)
(2.65194 0.508517 1.4816e-15)
(2.36116 0.431199 -7.00862e-15)
(2.12049 0.39346 1.16739e-15)
(2.02917 0.360346 1.55376e-15)
(1.59462 0.293193 6.11565e-16)
(0.449563 0.332718 -1.68416e-15)
(-0.131504 0.212524 5.0599e-16)
(-1.28801 0.268354 -5.37236e-15)
(-2.32645 0.279643 -5.40525e-15)
(-3.2806 0.316107 1.28157e-15)
(-4.09366 0.365616 -2.66608e-15)
(-4.72227 0.415835 -1.21402e-15)
(-5.13898 0.470685 -1.6848e-16)
(-5.29596 0.526697 2.9124e-15)
(-5.32159 0.567287 -1.90422e-15)
(-5.26389 0.606095 6.6133e-16)
(-5.10098 0.661598 -2.213e-15)
(-4.79989 0.722092 -2.61296e-15)
(-4.35438 0.72554 1.31201e-15)
(-3.83526 0.648676 -8.42728e-16)
(-3.25578 0.490432 -9.80443e-16)
(-2.81254 0.307603 1.04931e-16)
(-2.46171 0.141007 -1.63067e-16)
(-2.18864 -0.0120553 1.91684e-16)
(-0.630159 1.53865 -8.68123e-16)
(-0.540918 1.61815 1.86404e-15)
(-0.393295 1.55338 -3.34078e-16)
(-0.345849 1.62436 -4.01555e-15)
(-0.294677 1.92114 -7.36322e-16)
(-0.0318153 2.34668 1.27793e-14)
(0.555883 2.49305 1.95865e-15)
(1.27741 1.94573 -8.99411e-15)
(1.78095 0.685295 6.17802e-14)
(1.80453 -0.644677 -7.23793e-15)
(1.5381 -1.28233 -1.06696e-14)
(1.28016 -1.13485 8.58524e-15)
(1.05725 -0.643963 -1.08858e-14)
(0.870295 -0.132481 2.44771e-14)
(0.823125 0.242722 -1.74371e-14)
(0.915309 0.374241 -2.29081e-14)
(0.989531 0.35414 -1.52026e-15)
(1.06021 0.318712 -6.17058e-15)
(1.11162 0.289838 1.20839e-15)
(1.38929 0.21188 -8.14543e-15)
(1.20226 0.228933 4.01042e-15)
(1.29302 0.206271 -2.29427e-17)
(1.65041 0.272929 -3.24992e-15)
(1.68384 0.238591 -2.01845e-15)
(1.6433 0.176148 -1.97424e-15)
(1.55429 0.197416 -7.64471e-16)
(1.25446 0.221056 2.30874e-15)
(0.987476 0.164575 -2.94926e-15)
(0.503105 0.122879 -2.91605e-15)
(-0.439823 0.359072 2.25788e-15)
(-1.25797 0.429169 3.2828e-15)
(-2.09226 0.422395 3.24961e-15)
(-2.91392 0.462816 1.46877e-15)
(-3.62661 0.525812 -4.05524e-15)
(-4.17016 0.579067 -3.6294e-15)
(-4.42847 0.589324 -5.29096e-16)
(-4.42198 0.532155 2.20839e-15)
(-4.14754 0.406532 1.28261e-15)
(-3.80431 0.256208 4.45444e-16)
(-3.41149 0.0965698 -2.22885e-16)
(-3.03622 0.030037 2.71163e-16)
(-0.451438 1.23742 -2.37196e-16)
(-0.378394 1.30906 -1.59494e-15)
(-0.258329 1.27012 1.77642e-15)
(-0.180872 1.31761 4.96929e-15)
(-0.104668 1.4161 2.10984e-14)
(0.064408 1.54517 1.48736e-14)
(0.427161 1.5621 -3.80022e-14)
(0.904506 1.26413 -4.75817e-14)
(1.25382 0.594956 -2.84064e-14)
(1.32123 -0.152886 2.98347e-14)
(1.17726 -0.543849 5.29904e-15)
(1.01593 -0.501074 -5.59621e-14)
(0.886323 -0.275509 3.47549e-14)
(0.70816 -0.00249948 2.5294e-14)
(0.566488 0.246577 -4.25102e-14)
(0.529032 0.365861 8.57924e-15)
(0.520675 0.355127 3.4444e-14)
(0.474503 0.312632 1.90659e-15)
(0.432138 0.27053 -5.91966e-15)
(0.387663 0.239374 -8.60933e-15)
(0.36414 0.202067 1.7892e-16)
(0.419259 0.184928 1.07087e-14)
(0.599855 0.115676 -6.25082e-15)
(0.514002 0.200666 -1.37921e-15)
(0.724152 0.151624 -9.7825e-16)
(0.845955 0.148213 -4.96021e-16)
(1.05202 0.194308 1.05672e-15)
(1.1903 0.224277 -2.66894e-15)
(1.19094 0.133556 1.77851e-15)
(1.24359 0.179318 4.05421e-15)
(1.34531 0.273757 -2.5299e-15)
(1.27731 0.29063 -5.76218e-15)
(1.01302 0.312309 -2.49741e-16)
(0.553653 0.401193 2.50249e-15)
(0.0325291 0.373541 1.89274e-15)
(-0.665401 0.428955 1.5027e-17)
(-1.41346 0.379884 2.83209e-16)
(-2.11739 0.272587 1.31136e-16)
(-2.75529 0.143592 -7.62836e-17)
(-3.20808 -0.0491854 -2.52096e-17)
(-3.62244 -0.0889703 -1.77789e-17)
(-0.306322 0.97901 5.90221e-16)
(-0.243005 1.03479 -2.87157e-16)
(-0.146158 1.0047 1.54696e-15)
(-0.0681332 1.02541 1.29657e-15)
(0.0186689 1.05119 -2.51851e-15)
(0.130624 1.05717 -8.39258e-16)
(0.312243 1.01058 1.43357e-14)
(0.568183 0.83033 1.76176e-14)
(0.814383 0.520356 -1.36547e-14)
(0.940407 0.18874 2.02314e-14)
(0.953285 0.0095846 5.08267e-14)
(0.92512 0.0167633 -1.11015e-14)
(0.886509 0.0803814 -3.60181e-14)
(0.78453 0.148585 1.20033e-15)
(0.652125 0.228466 7.032e-15)
(0.567854 0.281587 -9.20883e-15)
(0.524647 0.276076 -1.56535e-14)
(0.473727 0.242869 -2.39283e-15)
(0.402736 0.216866 1.49787e-14)
(0.349315 0.201318 -5.63462e-15)
(0.310182 0.184391 7.04058e-16)
(0.290815 0.181866 4.46366e-19)
(0.277719 0.176017 4.81981e-16)
(0.280592 0.165801 1.5812e-16)
(0.285574 0.159546 -2.9307e-15)
(0.299093 0.156742 -2.91462e-15)
(0.336147 0.151362 4.03522e-15)
(0.329792 0.229342 -7.94616e-16)
(0.336512 0.302694 -1.89194e-15)
(0.59868 0.151703 -2.80136e-15)
(0.745326 0.157244 6.90028e-16)
(0.86025 0.235744 1.97998e-15)
(1.00319 0.265946 -9.2411e-16)
(1.24591 0.307888 -4.81545e-16)
(1.39852 0.328923 1.95814e-17)
(1.42557 0.338193 1.72534e-15)
(1.36351 0.305646 -1.31238e-16)
(1.06155 0.217465 -6.52105e-16)
(0.51383 0.1171 -1.32346e-15)
(-0.129062 -0.108822 2.81527e-16)
(-1.21572 -0.165992 -6.36519e-17)
(-0.195117 0.757957 2.88842e-17)
(-0.143465 0.802216 -4.54441e-16)
(-0.0665532 0.77649 -2.04023e-16)
(-0.00133932 0.781118 -4.75359e-15)
(0.0704414 0.77993 -4.05033e-15)
(0.149824 0.753906 1.73236e-15)
(0.247751 0.693103 1.09576e-14)
(0.368243 0.587737 -2.16929e-14)
(0.498435 0.435004 -1.55698e-16)
(0.613151 0.308606 3.28548e-14)
(0.685678 0.253265 -1.70337e-14)
(0.732082 0.250586 3.21404e-14)
(0.759795 0.255772 -1.28304e-15)
(0.733081 0.244745 -1.40513e-14)
(0.654447 0.246272 8.54935e-15)
(0.574849 0.25983 -2.46338e-14)
(0.519577 0.256136 1.22697e-14)
(0.470967 0.234644 4.50235e-15)
(0.417247 0.211146 -1.07016e-15)
(0.367872 0.1953 1.34331e-15)
(0.330584 0.182605 -4.77969e-15)
(0.322913 0.181287 -1.95118e-15)
(0.316378 0.172378 7.06139e-15)
(0.308548 0.166819 -1.97835e-15)
(0.30041 0.160653 -2.78603e-16)
(0.292781 0.158387 1.15231e-15)
(0.288201 0.161602 -5.80799e-16)
(0.288956 0.16841 -1.00588e-15)
(0.293981 0.177343 9.10491e-16)
(0.302438 0.188263 -1.11556e-15)
(0.319532 0.202274 1.35861e-15)
(0.36177 0.214648 -1.12128e-16)
(0.435417 0.236961 2.54103e-15)
(0.557601 0.213989 3.52563e-16)
(0.69566 0.280634 4.99204e-16)
(0.909309 0.236263 1.27426e-16)
(1.12118 0.214163 -2.4343e-16)
(1.27544 0.165518 1.3459e-15)
(1.38568 0.0646225 3.75863e-16)
(1.45477 0.0103683 -1.34185e-16)
(0.966625 -0.0937271 3.08506e-17)
(-0.119092 0.575647 -5.18352e-16)
(-0.0789432 0.6117 -3.5792e-16)
(-0.0197933 0.589662 -7.36543e-17)
(0.0301858 0.589425 -5.03809e-15)
(0.0823415 0.581102 4.18114e-15)
(0.135382 0.554544 6.259e-15)
(0.191132 0.515231 -1.20234e-14)
(0.252626 0.46386 5.93062e-15)
(0.318332 0.403404 3.33804e-16)
(0.389465 0.356866 -3.47555e-14)
(0.464193 0.351651 -1.895e-14)
(0.531246 0.361762 -5.92641e-15)
(0.586844 0.354491 4.69388e-15)
(0.605971 0.323284 -1.42203e-14)
(0.577822 0.287419 -7.16911e-15)
(0.523677 0.25999 2.99494e-14)
(0.471449 0.236881 -1.09054e-14)
(0.425387 0.210503 2.58035e-15)
(0.378943 0.184059 2.44901e-14)
(0.33646 0.166214 -1.0751e-14)
(0.303922 0.155164 -4.59536e-16)
(0.300505 0.156299 1.52351e-15)
(0.299926 0.15168 -2.72763e-15)
(0.300474 0.149434 5.5562e-15)
(0.301022 0.147666 -2.83475e-15)
(0.303249 0.148741 1.71745e-15)
(0.308172 0.152095 4.36383e-15)
(0.315847 0.158924 -1.15823e-15)
(0.323231 0.166831 -5.26806e-17)
(0.329116 0.177982 -4.22544e-16)
(0.33983 0.19186 -1.72891e-15)
(0.35728 0.205253 -1.13163e-15)
(0.381791 0.214757 -1.53505e-15)
(0.415814 0.218813 5.92407e-16)
(0.466581 0.2108 1.52854e-15)
(0.531902 0.187171 -1.37868e-15)
(0.609415 0.145171 -9.01404e-16)
(0.695088 0.0974906 -8.73502e-16)
(0.789535 0.0158518 -7.0475e-17)
(0.887502 0.0232719 -4.55193e-16)
(0.983293 -0.112549 1.24173e-16)
(-0.0717758 0.429248 7.54588e-17)
(-0.0415687 0.459471 1.54481e-16)
(0.00134435 0.443875 5.60002e-17)
(0.037481 0.443476 -1.38143e-16)
(0.0734731 0.437905 8.60436e-17)
(0.107589 0.422586 -5.64401e-16)
(0.140884 0.402466 2.69824e-15)
(0.175562 0.38139 3.52935e-15)
(0.214869 0.364064 2.56039e-14)
(0.260718 0.353707 6.17494e-15)
(0.315239 0.353521 -5.1787e-14)
(0.374841 0.363824 3.20088e-14)
(0.43309 0.360972 3.60518e-14)
(0.472163 0.335062 1.0279e-14)
(0.47695 0.293146 -1.39279e-14)
(0.452828 0.251052 -7.59687e-15)
(0.415978 0.217115 4.88703e-15)
(0.376321 0.186217 -1.90297e-14)
(0.337408 0.161427 8.63981e-15)
(0.300905 0.144008 8.79426e-16)
(0.270999 0.134323 -1.05856e-14)
(0.267165 0.13701 5.9154e-16)
(0.266659 0.135304 5.89185e-15)
(0.267534 0.13593 3.38083e-15)
(0.269594 0.13704 -9.51056e-15)
(0.273719 0.139708 1.31492e-15)
(0.281503 0.143603 4.21017e-15)
(0.293178 0.148837 -3.9058e-15)
(0.306398 0.154819 -1.57464e-15)
(0.32094 0.162236 5.27178e-15)
(0.338414 0.171987 -1.89215e-15)
(0.360392 0.181571 -5.42753e-16)
(0.387237 0.187933 1.05622e-15)
(0.417198 0.188016 -3.80229e-16)
(0.451004 0.179999 -6.41339e-16)
(0.484007 0.158288 -2.5184e-16)
(0.511542 0.12356 4.67316e-17)
(0.521796 0.0781553 5.30457e-16)
(0.535051 0.0266244 -7.52837e-17)
(0.531598 -0.022856 4.26378e-16)
(0.566199 -0.0755498 -1.32406e-16)
(-0.0434809 0.315631 -1.88971e-17)
(-0.0220836 0.341063 -6.64502e-17)
(0.00798138 0.331636 2.04668e-16)
(0.0330416 0.333792 7.53343e-16)
(0.0571685 0.333238 -4.974e-16)
(0.0795541 0.327987 2.97762e-16)
(0.101181 0.321547 -1.32957e-14)
(0.123534 0.316656 -1.21605e-14)
(0.149145 0.315623 4.76273e-15)
(0.18135 0.319315 2.02209e-15)
(0.220774 0.324751 4.34905e-15)
(0.263762 0.327882 -5.01649e-15)
(0.310929 0.327175 5.0553e-16)
(0.350956 0.312171 -1.46149e-14)
(0.371615 0.279675 -8.9132e-15)
(0.369685 0.241514 8.69427e-15)
(0.351045 0.204292 -1.0429e-14)
(0.32455 0.172762 2.1481e-14)
(0.295116 0.147581 -1.55998e-15)
(0.266238 0.129243 -8.86732e-16)
(0.241278 0.119338 5.29822e-16)
(0.237468 0.120465 7.5842e-16)
(0.236744 0.120111 -4.36826e-16)
(0.237388 0.122095 -1.56142e-15)
(0.238724 0.124288 1.85172e-15)
(0.253786 0.131065 8.45944e-15)
(0.254255 0.133542 5.03496e-16)
(0.260786 0.136323 -2.5239e-15)
(0.273767 0.141184 5.61122e-15)
(0.288288 0.145891 -1.88899e-15)
(0.305105 0.150935 1.6717e-15)
(0.325016 0.155323 7.24628e-16)
(0.348461 0.157327 -4.08729e-15)
(0.37361 0.154555 1.44868e-15)
(0.401987 0.145637 -3.56023e-16)
(0.430061 0.128754 -3.69313e-16)
(0.454334 0.103711 -4.58275e-18)
(0.463974 0.0718742 -2.94899e-16)
(0.470445 0.0370482 2.09026e-17)
(0.460162 0.00352858 -1.70882e-17)
(0.44953 -0.027599 1.26374e-16)
(-0.026622 0.229653 1.74782e-16)
(-0.0118746 0.250633 2.67218e-16)
(0.00854798 0.24619 -8.4331e-16)
(0.0256693 0.250554 3.12478e-17)
(0.0418981 0.253648 1.97586e-15)
(0.0570566 0.254586 1.30644e-15)
(0.0721325 0.255541 5.25079e-15)
(0.0880979 0.257811 6.30859e-15)
(0.106542 0.262295 -4.6536e-15)
(0.129344 0.269044 -2.07529e-14)
(0.157817 0.276177 1.56607e-14)
(0.18904 0.278365 3.43166e-15)
(0.222054 0.274711 -3.578e-14)
(0.253694 0.264189 1.66719e-14)
(0.277108 0.243922 2.76207e-14)
(0.286587 0.215764 -2.79197e-15)
(0.282877 0.185712 2.6178e-15)
(0.269693 0.158258 -2.90874e-15)
(0.251534 0.135359 1.14032e-15)
(0.23205 0.118739 1.46641e-14)
(0.213246 0.108357 -5.98509e-15)
(0.211534 0.108124 -1.32185e-14)
(0.211572 0.108318 -6.6357e-15)
(0.212238 0.110243 6.59029e-15)
(0.214662 0.112856 7.77088e-15)
(0.218058 0.116161 -1.42178e-15)
(0.224307 0.120315 -1.01697e-16)
(0.233478 0.123262 1.79724e-16)
(0.244682 0.126339 9.92344e-17)
(0.257498 0.128999 -3.37038e-16)
(0.271787 0.131024 -1.09886e-15)
(0.287743 0.13189 1.04256e-15)
(0.305323 0.130602 1.48407e-15)
(0.322867 0.125834 -9.66857e-16)
(0.342057 0.117212 -4.15967e-16)
(0.36117 0.103925 -1.87815e-16)
(0.378738 0.0859337 1.64149e-15)
(0.387432 0.0640278 -8.43251e-16)
(0.396224 0.0408918 5.04613e-18)
(0.395786 0.0182879 4.65303e-16)
(0.392919 -0.00285926 -7.61661e-17)
(-0.0164558 0.166474 -1.72655e-16)
(-0.00623666 0.182908 4.00866e-16)
(0.00754796 0.181556 1.77232e-16)
(0.0193232 0.186949 -1.46267e-15)
(0.0305095 0.191832 2.01433e-16)
(0.041169 0.195723 -9.61577e-16)
(0.0521384 0.1999 2.79229e-15)
(0.0640618 0.20489 4.24345e-15)
(0.0778153 0.210865 2.74159e-15)
(0.0943376 0.217585 4.80501e-15)
(0.11436 0.223977 -1.94717e-14)
(0.13647 0.226719 1.71693e-14)
(0.159799 0.224302 2.13025e-14)
(0.182069 0.21666 -1.56725e-14)
(0.200937 0.203631 -8.03487e-15)
(0.213905 0.186374 -1.36269e-14)
(0.218366 0.166011 9.65843e-16)
(0.215419 0.145649 2.55958e-16)
(0.207331 0.127592 3.35392e-15)
(0.196434 0.112971 -2.52499e-15)
(0.18423 0.102438 -1.00033e-15)
(0.18545 0.100824 4.05824e-15)
(0.186739 0.100202 1.44805e-15)
(0.188534 0.101117 -7.6875e-15)
(0.190901 0.102525 1.50072e-16)
(0.194938 0.104601 4.77483e-15)
(0.199913 0.107435 -1.39689e-15)
(0.206854 0.109387 -7.68632e-15)
(0.217056 0.110814 5.02856e-15)
(0.228053 0.111716 -2.01557e-15)
(0.239897 0.111731 2.99343e-15)
(0.252298 0.110462 -1.27932e-15)
(0.265223 0.107477 -2.24597e-15)
(0.277063 0.101988 1.64334e-15)
(0.289601 0.0943607 2.19954e-15)
(0.301668 0.0840849 -4.32487e-16)
(0.312923 0.0714102 -8.45635e-16)
(0.317937 0.0562734 4.82633e-16)
(0.324612 0.0406938 -4.15533e-16)
(0.325661 0.0253043 -6.23442e-17)
(0.32772 0.0109762 -1.40781e-16)
(-0.0100583 0.120337 -8.04828e-17)
(-0.00282999 0.133242 2.16696e-17)
(0.00662284 0.133509 3.31738e-16)
(0.0149163 0.138776 1.21222e-15)
(0.0229039 0.143897 -5.05474e-17)
(0.0306876 0.148548 7.64864e-16)
(0.0388826 0.153469 7.38307e-17)
(0.0478908 0.158837 -5.33562e-15)
(0.0581774 0.164525 -1.72207e-15)
(0.070177 0.170281 2.79273e-15)
(0.0842583 0.175528 -1.10229e-14)
(0.0995221 0.1782 -7.58772e-15)
(0.115761 0.177794 1.68276e-14)
(0.13157 0.173469 -4.15643e-15)
(0.145418 0.165514 1.86924e-14)
(0.156332 0.154823 7.26011e-15)
(0.163763 0.142549 -1.28832e-14)
(0.166476 0.12931 7.13933e-15)
(0.165049 0.116355 -1.27269e-14)
(0.160729 0.104679 2.02685e-15)
(0.154295 0.0953229 5.54054e-17)
(0.158684 0.0935162 1.76913e-15)
(0.161924 0.0922132 -6.28236e-15)
(0.164501 0.0916452 -2.93375e-15)
(0.167632 0.0916902 1.02361e-14)
(0.171416 0.0923223 -8.94635e-16)
(0.18254 0.0953714 -2.8556e-15)
(0.18472 0.0950217 -2.03059e-15)
(0.18981 0.0941762 6.56815e-15)
(0.199174 0.0940158 8.42343e-16)
(0.208519 0.0927429 -3.74912e-15)
(0.217942 0.0903566 4.35764e-16)
(0.227213 0.0867989 3.2444e-16)
(0.235329 0.0815872 -3.96975e-16)
(0.243597 0.0753863 -1.14801e-15)
(0.251549 0.0677409 7.24866e-16)
(0.258991 0.0591402 8.34256e-16)
(0.261975 0.0489926 -2.41006e-16)
(0.266971 0.0390552 2.09589e-16)
(0.268514 0.0289217 2.09053e-16)
(0.271598 0.0197957 -2.08874e-16)
(-0.00599608 0.0865579 1.02877e-16)
(-0.000709409 0.0967319 -4.29397e-16)
(0.00600228 0.0978653 -1.14682e-16)
(0.0120512 0.102529 -1.12649e-16)
(0.0179783 0.107126 2.78787e-15)
(0.0238507 0.11145 -1.09327e-15)
(0.0300834 0.115973 -8.84794e-16)
(0.0369166 0.120733 5.46328e-15)
(0.0445867 0.125548 1.04872e-15)
(0.0533018 0.130231 -8.42491e-15)
(0.0632301 0.13447 -2.55512e-15)
(0.0738093 0.137001 1.36535e-14)
(0.0849945 0.137721 -9.35769e-15)
(0.0961592 0.136149 -3.25998e-15)
(0.106378 0.13198 1.17944e-14)
(0.114947 0.125821 -3.65209e-15)
(0.121341 0.118177 9.41573e-15)
(0.126114 0.110275 -4.88148e-15)
(0.128184 0.101849 -2.24698e-14)
(0.127992 0.0935604 2.51921e-14)
(0.125938 0.0862699 1.6493e-15)
(0.132069 0.0848442 -1.43439e-14)
(0.136193 0.0831654 2.66389e-15)
(0.140198 0.0820136 -2.14459e-16)
(0.143944 0.0811615 5.15413e-15)
(0.148298 0.0807461 1.32557e-15)
(0.152701 0.0803535 -1.91633e-14)
(0.157864 0.0801296 -5.28804e-15)
(0.16406 0.0793035 6.87894e-15)
(0.17094 0.0780977 5.03703e-16)
(0.178027 0.0762529 9.46085e-16)
(0.185043 0.0736695 -2.53214e-15)
(0.191833 0.070366 4.2017e-16)
(0.197547 0.0661323 -1.61962e-17)
(0.20333 0.0614064 -1.48465e-18)
(0.208875 0.0560931 1.00723e-16)
(0.214138 0.0502754 1.31643e-16)
(0.216141 0.043695 9.73749e-19)
(0.220117 0.0373619 -6.47434e-17)
(0.221982 0.0309294 -1.71509e-16)
(0.225408 0.0251067 1.16268e-16)
(-0.00383834 0.0680192 2.03861e-16)
(0.000469722 0.0752442 -4.22574e-16)
(0.00564423 0.0764676 5.31855e-16)
(0.0104001 0.0800598 -1.02905e-15)
(0.0150959 0.0835542 6.71847e-16)
(0.0197645 0.0868674 -3.36006e-15)
(0.0246854 0.0902924 -7.4184e-15)
(0.0299905 0.0938392 6.51275e-15)
(0.0357973 0.0973426 1.3335e-14)
(0.0422215 0.100712 -5.64112e-15)
(0.0493419 0.103776 -7.10008e-15)
(0.0568036 0.105759 9.56942e-16)
(0.0646217 0.106693 3.12281e-15)
(0.0724805 0.106276 -1.25443e-15)
(0.0799594 0.104375 -1.05854e-16)
(0.0866455 0.100979 -6.83047e-16)
(0.0919981 0.0963426 1.03482e-14)
(0.0961633 0.0911696 -2.25203e-15)
(0.0992524 0.0857504 -1.61111e-14)
(0.101065 0.0802265 1.14205e-14)
(0.101202 0.0749091 5.68333e-15)
(0.108121 0.0742704 3.96261e-15)
(0.113294 0.0730746 -1.04249e-14)
(0.117554 0.0718009 1.06281e-15)
(0.121836 0.0707321 1.62981e-16)
(0.12599 0.0697646 1.70937e-17)
(0.130663 0.0688244 -2.34511e-17)
(0.135393 0.0683709 -2.38577e-16)
(0.139755 0.0670256 1.62045e-17)
(0.145569 0.0656638 1.19467e-16)
(0.151246 0.0638853 -2.4787e-16)
(0.156794 0.0617033 1.17585e-15)
(0.162057 0.0590455 6.68931e-16)
(0.166426 0.0558502 -1.94619e-15)
(0.170808 0.0523914 4.24023e-16)
(0.175026 0.0487058 -5.00952e-16)
(0.179083 0.0447356 -3.00599e-16)
(0.180671 0.0403316 7.39209e-16)
(0.183999 0.0362223 -1.36761e-16)
(0.185953 0.0320346 -4.61558e-18)
(0.189377 0.02834 -1.14984e-17)
(-0.00241895 0.0551267 -1.08075e-17)
(0.00124045 0.0602281 2.08548e-16)
(0.00536276 0.0613006 4.25464e-16)
(0.00926888 0.063988 -1.93118e-15)
(0.0130735 0.0665759 -1.61756e-16)
(0.016892 0.069002 -1.87292e-15)
(0.0208435 0.071517 1.74458e-15)
(0.0250595 0.0740695 -3.87258e-16)
(0.0295542 0.0765849 -5.42303e-15)
(0.0344347 0.0789858 2.83272e-15)
(0.0397202 0.0812215 1.29429e-14)
(0.0451959 0.0827609 4.24142e-16)
(0.0508841 0.0836971 -1.07029e-14)
(0.0566365 0.0838202 2.22651e-15)
(0.0621964 0.0830528 -7.31367e-15)
(0.067355 0.0813209 -1.54752e-14)
(0.0718631 0.0787141 7.71391e-15)
(0.0755305 0.0753643 1.17136e-14)
(0.0783956 0.0717122 4.71664e-15)
(0.0805327 0.0678526 -1.98399e-15)
(0.082002 0.0643025 -1.04591e-14)
(0.0886225 0.0643618 8.94381e-15)
(0.09348 0.0635358 -1.80035e-15)
(0.0982992 0.0625805 1.6958e-16)
(0.102453 0.0614226 4.03944e-16)
(0.106462 0.0603861 -2.7533e-15)
(0.110735 0.0595581 -2.11839e-15)
(0.117768 0.0596006 6.81502e-15)
(0.12098 0.0581934 -1.1131e-15)
(0.124201 0.0565157 -5.19877e-15)
(0.129038 0.0551504 4.74962e-15)
(0.133599 0.0534367 -2.61892e-15)
(0.137895 0.0513495 -6.39761e-18)
(0.141373 0.0489235 3.04688e-15)
(0.144929 0.0463353 -3.67611e-15)
(0.148353 0.0436896 2.09919e-15)
(0.15175 0.040852 1.20326e-15)
(0.153194 0.0377282 -1.65313e-15)
(0.156169 0.0348979 6.87316e-16)
(0.158147 0.0320099 -1.9497e-16)
(0.161403 0.0295939 2.46174e-16)
(-0.00147488 0.0451137 -9.19712e-17)
(0.00167582 0.0488263 4.26029e-16)
(0.00505804 0.0497029 1.34244e-18)
(0.00830265 0.0517265 -8.00282e-16)
(0.0114523 0.0536303 2.37689e-16)
(0.0145909 0.0554182 -4.77652e-16)
(0.0178243 0.0572584 -3.68034e-16)
(0.021209 0.0591333 3.20617e-15)
(0.0247805 0.0609597 -1.40604e-15)
(0.0285739 0.0627433 -5.36835e-15)
(0.0326431 0.0644176 3.75484e-15)
(0.036802 0.0656802 6.58322e-15)
(0.0411154 0.0665514 -5.83304e-15)
(0.0454613 0.0669566 8.89802e-15)
(0.0497522 0.0667899 3.25808e-15)
(0.0538132 0.0660427 -1.27673e-14)
(0.0575268 0.064669 -1.37572e-14)
(0.0607703 0.0627799 1.12723e-14)
(0.0634407 0.0603913 -8.65836e-16)
(0.0655632 0.0577321 8.35383e-16)
(0.066911 0.0550238 -7.91164e-16)
(0.072814 0.0554717 1.33287e-16)
(0.0775558 0.0551986 -1.1876e-16)
(0.081469 0.054375 2.64456e-16)
(0.0856782 0.0535208 7.46455e-16)
(0.0899787 0.0528289 4.03943e-16)
(0.0941071 0.0521312 -3.12087e-16)
(0.0981276 0.0514745 1.33751e-15)
(0.102794 0.0509452 7.96523e-16)
(0.10669 0.0495704 -3.06182e-15)
(0.110435 0.0483822 -1.04774e-16)
(0.11414 0.0469181 2.09325e-15)
(0.117702 0.0452698 -7.16565e-16)
(0.120643 0.0433168 -3.49769e-15)
(0.123655 0.0413738 2.83422e-15)
(0.126606 0.0393372 3.60828e-16)
(0.129581 0.0372934 6.1878e-17)
(0.131012 0.0348836 -1.25026e-15)
(0.133748 0.0328832 5.25673e-16)
(0.135721 0.0306594 -1.57084e-16)
(0.138684 0.0290506 2.38133e-16)
(-0.000828306 0.0372117 3.47926e-18)
(0.00184413 0.0399325 -8.45854e-17)
(0.00470685 0.0406451 -5.1321e-16)
(0.00740161 0.0421758 1.1534e-15)
(0.0100596 0.0435784 4.66491e-17)
(0.0126484 0.0449066 -7.09653e-16)
(0.0153299 0.0462595 -7.13317e-16)
(0.0180794 0.0476559 1.47243e-15)
(0.0209665 0.0490154 -2.47009e-15)
(0.0239914 0.050373 -1.32614e-15)
(0.0272067 0.0516788 -1.50006e-15)
(0.030477 0.052723 -3.80491e-16)
(0.0338596 0.0535485 5.16717e-15)
(0.0372895 0.054075 4.88397e-15)
(0.0406938 0.0542635 1.7227e-15)
(0.0439889 0.0540398 -7.42094e-15)
(0.0470816 0.0534188 1.27697e-15)
(0.0498971 0.0523676 1.52342e-15)
(0.0523586 0.0509491 1.40298e-16)
(0.0544422 0.0491629 -8.80463e-16)
(0.0560012 0.0472411 7.5565e-16)
(0.0609409 0.0477794 -1.61624e-16)
(0.0645599 0.0474006 1.98205e-16)
(0.0682601 0.0469635 -1.39944e-15)
(0.0719896 0.0466543 2.26016e-15)
(0.0759345 0.0462936 3.01768e-15)
(0.080116 0.045969 -8.01531e-15)
(0.0838917 0.0454191 -6.00984e-16)
(0.0882147 0.0450898 5.05092e-15)
(0.0916685 0.044197 -2.3735e-15)
(0.0944927 0.0425567 5.85097e-16)
(0.0976224 0.0412488 2.6383e-15)
(0.100702 0.0398652 -9.64863e-16)
(0.103294 0.0382432 1.04305e-15)
(0.105944 0.0366703 -1.80662e-15)
(0.108593 0.0350325 -4.64635e-17)
(0.111248 0.0334109 -3.37725e-16)
(0.112663 0.0314522 1.01565e-15)
(0.115133 0.029852 -1.59749e-16)
(0.117 0.0280229 -5.78264e-17)
(0.119586 0.0267283 -2.0551e-17)
(-0.000423315 0.0308561 -3.62618e-17)
(0.00188271 0.0328855 -1.72438e-17)
(0.00430222 0.033448 -3.77125e-16)
(0.00658712 0.0346113 3.49979e-16)
(0.00881906 0.0356542 7.26744e-16)
(0.0109952 0.0366388 1.39743e-16)
(0.0132164 0.0376497 -1.11923e-15)
(0.0155001 0.0386961 2.20995e-15)
(0.0178519 0.03973 -5.26714e-15)
(0.0203279 0.0407709 3.46032e-15)
(0.0229136 0.04181 8.66392e-15)
(0.0255735 0.04267 -6.12083e-15)
(0.0282857 0.0434164 -4.22432e-15)
(0.031077 0.0439508 4.65834e-15)
(0.0338484 0.0442948 9.5785e-15)
(0.0365838 0.0443194 1.38386e-15)
(0.039172 0.0440865 -4.69677e-15)
(0.041609 0.0434888 -1.15171e-14)
(0.0437796 0.0426096 4.34758e-15)
(0.0457463 0.0413774 4.43443e-15)
(0.0472107 0.0399488 2.60521e-15)
(0.0513061 0.0402595 4.04711e-15)
(0.0547001 0.0401268 -9.80365e-15)
(0.0579815 0.0399997 -5.38772e-16)
(0.0615621 0.0398792 4.62899e-15)
(0.0651671 0.039737 -3.439e-15)
(0.0685308 0.0393122 -1.28503e-15)
(0.0716974 0.0386672 4.45817e-15)
(0.074802 0.0379593 -2.24137e-15)