/*--------------------------------*- C++ -*----------------------------------*\
| =========                 |                                                 |
| \\      /  F ield         | OpenFOAM: The Open Source CFD Toolbox           |
|  \\    /   O peration     | Version:  2312                                  |
|   \\  /    A nd           | Website:  www.openfoam.com                      |
|    \\/     M anipulation  |                                                 |
\*---------------------------------------------------------------------------*/
FoamFile
{
    version     2.0;
    format      ascii;
    arch        "LSB;label=32;scalar=64";
    class       volScalarField;
    location    "250";
    object      nuTilda;
}
// * * * * * * * * * * * * * * * * * * * * * * * * * * * * * * * * * * * * * //

dimensions      [0 2 -1 0 0 0 0];

internalField   nonuniform List<scalar> 
11040
(
6.44052e-05
9.01656e-05
0.00012806
0.000190601
0.000309902
0.00075151
0.000913264
0.000932727
0.000997776
0.00119208
0.0015715
0.00170837
0.00172334
0.00173475
0.00176601
0.00180045
0.00182654
0.00183949
0.0018398
0.00183005
0.00180953
0.00178074
0.00175036
0.00172027
0.00168895
0.00165543
0.00161914
0.00157978
0.00153663
0.0014888
0.00143539
0.00137552
0.00130813
0.00122965
0.00111818
0.000884564
0.000738149
0.000676001
0.000613837
0.000587728
0.000738668
3.84164e-05
4.00894e-05
6.05729e-05
0.000108395
0.000177421
0.000392349
0.000728352
0.00118598
0.00187329
0.00277584
0.00348483
0.00386537
0.00403751
0.0041239
0.00418233
0.00421609
0.00421013
0.00416039
0.0040821
0.003996
0.00391533
0.00384796
0.00378847
0.0037289
0.00366845
0.0036128
0.00356432
0.0035222
0.00348455
0.00344995
0.00341756
0.00338698
0.00335763
0.00332711
0.00328546
0.00319922
0.00311928
0.00305786
0.00303427
0.00301801
0.00373134
4.05313e-05
4.09861e-05
3.99067e-05
4.5238e-05
5.98346e-05
9.82822e-05
0.000196703
0.000364933
0.000606553
0.000928088
0.00137105
0.00194067
0.00260876
0.00331654
0.00398131
0.00452496
0.00490829
0.00514328
0.00528334
0.00538576
0.00547602
0.00555376
0.00561543
0.00566267
0.00569449
0.00571839
0.0057386
0.00575598
0.00576951
0.00577839
0.0057826
0.0057829
0.00578043
0.00577508
0.00576503
0.00574314
0.00572278
0.00570339
0.00571103
0.0056738
0.00620403
4.01409e-05
4.02383e-05
4.0217e-05
3.89851e-05
3.78445e-05
3.42927e-05
3.522e-05
4.87231e-05
7.46989e-05
0.000110242
0.000157031
0.000220947
0.000328765
0.000525935
0.000857847
0.00135586
0.0020186
0.00280345
0.00363176
0.0044124
0.00507538
0.00557757
0.00593509
0.00620754
0.00643167
0.00662777
0.00680415
0.00696307
0.00710531
0.00723249
0.00734704
0.00745148
0.00754781
0.0076367
0.00771793
0.00778937
0.00785636
0.0079161
0.00799623
0.0080303
0.00837605
4.01437e-05
4.01513e-05
4.02079e-05
4.01301e-05
3.9642e-05
3.76422e-05
3.2735e-05
2.52301e-05
1.71924e-05
1.00667e-05
3.87496e-06
4.93353e-05
2.442e-05
3.026e-05
1.64867e-05
4.47194e-05
0.000122782
0.000289789
0.000595652
0.00108004
0.0017721
0.00259865
0.00344328
0.00424898
0.00497751
0.00561043
0.00615004
0.00660969
0.00700772
0.00736193
0.00768635
0.00799009
0.00827776
0.00855134
0.00881077
0.00905419
0.0092838
0.00949812
0.00971832
0.00990795
0.0101755
4.00941e-05
4.00975e-05
4.01026e-05
4.01134e-05
4.01301e-05
4.01068e-05
3.96328e-05
3.8046e-05
3.54516e-05
3.23233e-05
2.91237e-05
2.62115e-05
2.49191e-05
2.17811e-05
1.88695e-05
6.62221e-06
3.19534e-05
1.04716e-05
9.30261e-06
2.26598e-05
0.000104077
0.000264358
0.00053614
0.00093147
0.00144349
0.00205954
0.00275714
0.0035084
0.00428465
0.00505956
0.00581212
0.00652858
0.00720187
0.00783269
0.00842424
0.00897932
0.00950235
0.00999858
0.0104778
0.0109305
0.0113525
4.00858e-05
4.00922e-05
4.00984e-05
4.01055e-05
4.01098e-05
4.01344e-05
4.02252e-05
4.03437e-05
4.03685e-05
4.02855e-05
4.0133e-05
3.98718e-05
3.92197e-05
3.89678e-05
3.85727e-05
3.72279e-05
3.4989e-05
3.1761e-05
2.66867e-05
1.26268e-05
2.8255e-05
6.2048e-05
4.41235e-05
4.12559e-05
4.67783e-05
0.000129557
0.0002774
0.000512562
0.000851586
0.00130644
0.00188471
0.00258757
0.00340386
0.00431863
0.00530829
0.00634031
0.00737946
0.0084053
0.00939122
0.0103154
0.0112252
4.0085e-05
4.00907e-05
4.00943e-05
4.00979e-05
4.01017e-05
4.01041e-05
4.01106e-05
4.01465e-05
4.02226e-05
4.03455e-05
4.04936e-05
4.06284e-05
4.07365e-05
4.08502e-05
4.09255e-05
4.1108e-05
4.11428e-05
4.06538e-05
4.03162e-05
3.83791e-05
3.49623e-05
2.99512e-05
2.59907e-05
8.67653e-06
1.53421e-05
3.03778e-05
4.41941e-06
0.000101262
0.000163754
2.35844e-05
9.58379e-05
0.000231302
0.000455482
0.000809561
0.00133073
0.00203822
0.00293914
0.00403894
0.00530772
0.00666443
0.00829088
4.00837e-05
4.00878e-05
4.00895e-05
4.0091e-05
4.0093e-05
4.00954e-05
4.00977e-05
4.00986e-05
4.01013e-05
4.01105e-05
4.01304e-05
4.01615e-05
4.01994e-05
4.02476e-05
4.0303e-05
4.03796e-05
4.0471e-05
4.06047e-05
4.06977e-05
4.09424e-05
4.11841e-05
4.05342e-05
3.92489e-05
3.80749e-05
3.56552e-05
3.26266e-05
2.8087e-05
2.20781e-05
5.12911e-06
9.69568e-06
2.1273e-05
4.40918e-05
8.66716e-05
5.7339e-05
6.2637e-05
0.000107101
0.000291755
0.00063059
0.00118839
0.00194288
0.00324694
4.00819e-05
4.00837e-05
4.00833e-05
4.00827e-05
4.00828e-05
4.00836e-05
4.00848e-05
4.00861e-05
4.00868e-05
4.0086e-05
4.00833e-05
4.00812e-05
4.00802e-05
4.00809e-05
4.00833e-05
4.00875e-05
4.00964e-05
4.01146e-05
4.01491e-05
4.02066e-05
4.03056e-05
4.04789e-05
4.06314e-05
4.09012e-05
4.09987e-05
4.07808e-05
4.01399e-05
3.94672e-05
3.76367e-05
3.46633e-05
3.04176e-05
2.55076e-05
1.64484e-05
4.25362e-06
1.45292e-05
2.02197e-05
4.75208e-05
0.000107774
8.69345e-05
0.000104925
0.000358641
4.0079e-05
4.00783e-05
4.00762e-05
4.00744e-05
4.00735e-05
4.00734e-05
4.00738e-05
4.00747e-05
4.00755e-05
4.00762e-05
4.00764e-05
4.00754e-05
4.00747e-05
4.00737e-05
4.00725e-05
4.00707e-05
4.00684e-05
4.00655e-05
4.00633e-05
4.00603e-05
4.00571e-05
4.00661e-05
4.00935e-05
4.01527e-05
4.02426e-05
4.03555e-05
4.04983e-05
4.06309e-05
4.08885e-05
4.08908e-05
4.05656e-05
3.97e-05
3.80365e-05
3.46139e-05
3.11843e-05
2.52591e-05
1.45184e-05
5.78465e-06
1.55102e-05
1.72542e-05
5.0313e-05
4.00749e-05
4.00722e-05
4.00693e-05
4.00674e-05
4.00663e-05
4.0066e-05
4.00662e-05
4.00667e-05
4.00673e-05
4.00678e-05
4.00682e-05
4.00679e-05
4.0068e-05
4.00684e-05
4.00689e-05
4.00694e-05
4.00698e-05
4.00698e-05
4.00695e-05
4.00686e-05
4.0066e-05
4.00614e-05
4.00569e-05
4.00528e-05
4.00512e-05
4.00552e-05
4.0071e-05
4.01014e-05
4.01625e-05
4.02557e-05
4.03777e-05
4.05227e-05
4.07218e-05
4.08987e-05
4.08316e-05
4.01839e-05
3.82575e-05
3.42506e-05
2.7275e-05
2.17163e-05
5.14721e-06
4.00698e-05
4.00664e-05
4.00638e-05
4.00626e-05
4.00621e-05
4.00621e-05
4.00624e-05
4.00628e-05
4.00633e-05
4.00638e-05
4.00642e-05
4.00644e-05
4.00641e-05
4.00642e-05
4.00645e-05
4.00651e-05
4.00657e-05
4.00664e-05
4.00672e-05
4.0068e-05
4.00686e-05
4.00687e-05
4.00682e-05
4.0067e-05
4.00651e-05
4.00623e-05
4.0059e-05
4.0056e-05
4.0054e-05
4.0055e-05
4.00601e-05
4.00774e-05
4.01167e-05
4.02085e-05
4.03641e-05
4.05606e-05
4.08082e-05
4.10589e-05
4.07393e-05
4.02971e-05
3.61287e-05
4.00646e-05
4.00618e-05
4.00604e-05
4.00601e-05
4.00603e-05
4.00606e-05
4.00609e-05
4.00614e-05
4.00618e-05
4.00622e-05
4.00626e-05
4.00629e-05
4.0063e-05
4.00628e-05
4.00628e-05
4.0063e-05
4.00633e-05
4.00638e-05
4.00643e-05
4.00649e-05
4.00655e-05
4.0066e-05
4.00664e-05
4.00667e-05
4.0067e-05
4.00671e-05
4.0067e-05
4.00667e-05
4.00658e-05
4.00643e-05
4.00617e-05
4.0058e-05
4.0054e-05
4.00517e-05
4.0057e-05
4.00773e-05
4.01258e-05
4.0246e-05
4.04376e-05
4.07379e-05
4.10337e-05
4.00602e-05
4.00591e-05
4.0059e-05
4.00593e-05
4.00597e-05
4.006e-05
4.00603e-05
4.00606e-05
4.00609e-05
4.00612e-05
4.00616e-05
4.00619e-05
4.00621e-05
4.00623e-05
4.00624e-05
4.00622e-05
4.00622e-05
4.00623e-05
4.00625e-05
4.00628e-05
4.00631e-05
4.00632e-05
4.00633e-05
4.00633e-05
4.00633e-05
4.00633e-05
4.00635e-05
4.00637e-05
4.0064e-05
4.00643e-05
4.00644e-05
4.00643e-05
4.00637e-05
4.00623e-05
4.00597e-05
4.00557e-05
4.00508e-05
4.0046e-05
4.00585e-05
4.00778e-05
4.02089e-05
4.00571e-05
4.00581e-05
4.00587e-05
4.0059e-05
4.00591e-05
4.00592e-05
4.00593e-05
4.00594e-05
4.00595e-05
4.00597e-05
4.00599e-05
4.00602e-05
4.00604e-05
4.00607e-05
4.0061e-05
4.00612e-05
4.00613e-05
4.00615e-05
4.00614e-05
4.00613e-05
4.00612e-05
4.00613e-05
4.00614e-05
4.00616e-05
4.00617e-05
4.00619e-05
4.0062e-05
4.00622e-05
4.00623e-05
4.00625e-05
4.00627e-05
4.00629e-05
4.00631e-05
4.00633e-05
4.00634e-05
4.00632e-05
4.00626e-05
4.00605e-05
4.00574e-05
4.00511e-05
4.00479e-05
4.00553e-05
4.00579e-05
4.00585e-05
4.00585e-05
4.00583e-05
4.00582e-05
4.0058e-05
4.00578e-05
4.00577e-05
4.00576e-05
4.00576e-05
4.00577e-05
4.00578e-05
4.00578e-05
4.00579e-05
4.00579e-05
4.00578e-05
4.00578e-05
4.0058e-05
4.00582e-05
4.00583e-05
4.00585e-05
4.00586e-05
4.00587e-05
4.00588e-05
4.00588e-05
4.00588e-05
4.00588e-05
4.00588e-05
4.00588e-05
4.00588e-05
4.00588e-05
4.00588e-05
4.00589e-05
4.00589e-05
4.0059e-05
4.00592e-05
4.00594e-05
4.00593e-05
4.00593e-05
4.00579e-05
4.00541e-05
4.0057e-05
4.00577e-05
4.00577e-05
4.00575e-05
4.00573e-05
4.00571e-05
4.00571e-05
4.0057e-05
4.00571e-05
4.00572e-05
4.00573e-05
4.00574e-05
4.00576e-05
4.00578e-05
4.0058e-05
4.00583e-05
4.00586e-05
4.0059e-05
4.00593e-05
4.00597e-05
4.00601e-05
4.00604e-05
4.00607e-05
4.0061e-05
4.00613e-05
4.00615e-05
4.00618e-05
4.0062e-05
4.00622e-05
4.00625e-05
4.00627e-05
4.00629e-05
4.0063e-05
4.00632e-05
4.00634e-05
4.00635e-05
4.00637e-05
4.00639e-05
4.00639e-05
4.00644e-05
4.0053e-05
4.0056e-05
4.00564e-05
4.00562e-05
4.00558e-05
4.00555e-05
4.00553e-05
4.00552e-05
4.00551e-05
4.00552e-05
4.00552e-05
4.00554e-05
4.00555e-05
4.00557e-05
4.00559e-05
4.00561e-05
4.00564e-05
4.00566e-05
4.00569e-05
4.00573e-05
4.00576e-05
4.0058e-05
4.00583e-05
4.00587e-05
4.0059e-05
4.00593e-05
4.00597e-05
4.006e-05
4.00603e-05
4.00606e-05
4.0061e-05
4.00613e-05
4.00616e-05
4.0062e-05
4.00623e-05
4.00627e-05
4.0063e-05
4.00634e-05
4.00637e-05
4.0064e-05
4.00646e-05
4.00525e-05
4.00551e-05
4.00553e-05
4.00548e-05
4.00543e-05
4.0054e-05
4.00538e-05
4.00537e-05
4.00537e-05
4.00537e-05
4.00539e-05
4.0054e-05
4.00542e-05
4.00544e-05
4.00546e-05
4.00548e-05
4.0055e-05
4.00553e-05
4.00556e-05
4.00559e-05
4.00562e-05
4.00565e-05
4.00568e-05
4.0057e-05
4.00573e-05
4.00576e-05
4.00578e-05
4.00581e-05
4.00583e-05
4.00586e-05
4.00588e-05
4.00591e-05
4.00594e-05
4.00596e-05
4.00599e-05
4.00602e-05
4.00604e-05
4.00607e-05
4.0061e-05
4.00613e-05
4.00617e-05
4.0052e-05
4.00542e-05
4.0054e-05
4.00534e-05
4.00529e-05
4.00526e-05
4.00524e-05
4.00524e-05
4.00524e-05
4.00525e-05
4.00527e-05
4.00528e-05
4.0053e-05
4.00533e-05
4.00535e-05
4.00537e-05
4.0054e-05
4.00543e-05
4.00545e-05
4.00548e-05
4.00551e-05
4.00554e-05
4.00557e-05
4.0056e-05
4.00562e-05
4.00565e-05
4.00567e-05
4.0057e-05
4.00572e-05
4.00574e-05
4.00576e-05
4.00579e-05
4.00581e-05
4.00583e-05
4.00585e-05
4.00588e-05
4.0059e-05
4.00592e-05
4.00594e-05
4.00597e-05
4.00599e-05
4.00515e-05
4.00531e-05
4.00527e-05
4.0052e-05
4.00516e-05
4.00513e-05
4.00512e-05
4.00512e-05
4.00513e-05
4.00515e-05
4.00517e-05
4.00519e-05
4.00521e-05
4.00524e-05
4.00526e-05
4.00529e-05
4.00532e-05
4.00535e-05
4.00537e-05
4.0054e-05
4.00543e-05
4.00546e-05
4.00549e-05
4.00552e-05
4.00555e-05
4.00557e-05
4.0056e-05
4.00562e-05
4.00564e-05
4.00567e-05
4.00569e-05
4.00571e-05
4.00573e-05
4.00575e-05
4.00577e-05
4.0058e-05
4.00582e-05
4.00584e-05
4.00586e-05
4.00588e-05
4.0059e-05
4.00508e-05
4.00519e-05
4.00514e-05
4.00508e-05
4.00503e-05
4.00502e-05
4.00501e-05
4.00502e-05
4.00504e-05
4.00506e-05
4.00508e-05
4.00511e-05
4.00513e-05
4.00516e-05
4.00519e-05
4.00522e-05
4.00525e-05
4.00528e-05
4.00531e-05
4.00534e-05
4.00537e-05
4.0054e-05
4.00543e-05
4.00546e-05
4.00549e-05
4.00552e-05
4.00554e-05
4.00557e-05
4.00559e-05
4.00561e-05
4.00563e-05
4.00566e-05
4.00568e-05
4.0057e-05
4.00572e-05
4.00574e-05
4.00576e-05
4.00579e-05
4.0058e-05
4.00583e-05
4.00584e-05
4.005e-05
4.00507e-05
4.00501e-05
4.00495e-05
4.00492e-05
4.00491e-05
4.00491e-05
4.00493e-05
4.00495e-05
4.00498e-05
4.005e-05
4.00503e-05
4.00507e-05
4.0051e-05
4.00513e-05
4.00516e-05
4.00519e-05
4.00523e-05
4.00526e-05
4.00529e-05
4.00532e-05
4.00536e-05
4.00539e-05
4.00542e-05
4.00545e-05
4.00547e-05
4.0055e-05
4.00553e-05
4.00555e-05
4.00558e-05
4.0056e-05
4.00562e-05
4.00564e-05
4.00567e-05
4.00569e-05
4.00571e-05
4.00573e-05
4.00575e-05
4.00577e-05
4.0058e-05
4.00581e-05
4.00491e-05
4.00495e-05
4.00488e-05
4.00483e-05
4.00481e-05
4.00481e-05
4.00482e-05
4.00484e-05
4.00487e-05
4.0049e-05
4.00493e-05
4.00497e-05
4.005e-05
4.00504e-05
4.00507e-05
4.00511e-05
4.00514e-05
4.00518e-05
4.00521e-05
4.00525e-05
4.00528e-05
4.00532e-05
4.00535e-05
4.00538e-05
4.00541e-05
4.00544e-05
4.00547e-05
4.0055e-05
4.00552e-05
4.00555e-05
4.00557e-05
4.0056e-05
4.00562e-05
4.00564e-05
4.00566e-05
4.00569e-05
4.00571e-05
4.00573e-05
4.00575e-05
4.00578e-05
4.00578e-05
4.0048e-05
4.00482e-05
4.00476e-05
4.00472e-05
4.0047e-05
4.00471e-05
4.00473e-05
4.00476e-05
4.00479e-05
4.00483e-05
4.00487e-05
4.0049e-05
4.00494e-05
4.00498e-05
4.00502e-05
4.00506e-05
4.0051e-05
4.00513e-05
4.00517e-05
4.00521e-05
4.00524e-05
4.00528e-05
4.00531e-05
4.00535e-05
4.00538e-05
4.00541e-05
4.00544e-05
4.00547e-05
4.00549e-05
4.00552e-05
4.00555e-05
4.00557e-05
4.0056e-05
4.00562e-05
4.00564e-05
4.00567e-05
4.00569e-05
4.00571e-05
4.00573e-05
4.00576e-05
4.00577e-05
4.00469e-05
4.0047e-05
4.00464e-05
4.00461e-05
4.0046e-05
4.00462e-05
4.00464e-05
4.00468e-05
4.00472e-05
4.00476e-05
4.0048e-05
4.00484e-05
4.00488e-05
4.00492e-05
4.00497e-05
4.00501e-05
4.00505e-05
4.00509e-05
4.00513e-05
4.00516e-05
4.0052e-05
4.00524e-05
4.00528e-05
4.00531e-05
4.00535e-05
4.00538e-05
4.00541e-05
4.00544e-05
4.00547e-05
4.0055e-05
4.00552e-05
4.00555e-05
4.00557e-05
4.0056e-05
4.00562e-05
4.00565e-05
4.00567e-05
4.00569e-05
4.00571e-05
4.00574e-05
4.00575e-05
4.00458e-05
4.00457e-05
4.00452e-05
4.0045e-05
4.0045e-05
4.00452e-05
4.00456e-05
4.0046e-05
4.00464e-05
4.00468e-05
4.00473e-05
4.00477e-05
4.00482e-05
4.00486e-05
4.00491e-05
4.00495e-05
4.00499e-05
4.00504e-05
4.00508e-05
4.00512e-05
4.00516e-05
4.0052e-05
4.00524e-05
4.00527e-05
4.00531e-05
4.00534e-05
4.00537e-05
4.00541e-05
4.00544e-05
4.00546e-05
4.00549e-05
4.00552e-05
4.00555e-05
4.00557e-05
4.0056e-05
4.00562e-05
4.00564e-05
4.00567e-05
4.00569e-05
4.00572e-05
4.00573e-05
4.00445e-05
4.00444e-05
4.0044e-05
4.00438e-05
4.0044e-05
4.00443e-05
4.00446e-05
4.00451e-05
4.00456e-05
4.0046e-05
4.00465e-05
4.0047e-05
4.00475e-05
4.0048e-05
4.00484e-05
4.00489e-05
4.00493e-05
4.00498e-05
4.00502e-05
4.00507e-05
4.00511e-05
4.00515e-05
4.00519e-05
4.00523e-05
4.00526e-05
4.0053e-05
4.00533e-05
4.00536e-05
4.00539e-05
4.00542e-05
4.00545e-05
4.00548e-05
4.00551e-05
4.00553e-05
4.00556e-05
4.00559e-05
4.00561e-05
4.00563e-05
4.00565e-05
4.00568e-05
4.00569e-05
4.00432e-05
4.0043e-05
4.00427e-05
4.00427e-05
4.00429e-05
4.00432e-05
4.00437e-05
4.00441e-05
4.00447e-05
4.00452e-05
4.00457e-05
4.00462e-05
4.00467e-05
4.00472e-05
4.00477e-05
4.00482e-05
4.00486e-05
4.00491e-05
4.00496e-05
4.005e-05
4.00505e-05
4.00509e-05
4.00513e-05
4.00517e-05
4.00521e-05
4.00524e-05
4.00528e-05
4.00531e-05
4.00534e-05
4.00537e-05
4.0054e-05
4.00543e-05
4.00546e-05
4.00548e-05
4.00551e-05
4.00554e-05
4.00556e-05
4.00558e-05
4.00561e-05
4.00563e-05
4.00565e-05
4.00419e-05
4.00417e-05
4.00415e-05
4.00415e-05
4.00418e-05
4.00422e-05
4.00426e-05
4.00431e-05
4.00436e-05
4.00442e-05
4.00447e-05
4.00452e-05
4.00458e-05
4.00463e-05
4.00468e-05
4.00473e-05
4.00478e-05
4.00483e-05
4.00488e-05
4.00492e-05
4.00497e-05
4.00501e-05
4.00505e-05
4.00509e-05
4.00513e-05
4.00517e-05
4.0052e-05
4.00524e-05
4.00527e-05
4.0053e-05
4.00533e-05
4.00536e-05
4.00539e-05
4.00542e-05
4.00544e-05
4.00547e-05
4.00549e-05
4.00552e-05
4.00554e-05
4.00556e-05
4.00558e-05
4.00405e-05
4.00403e-05
4.00401e-05
4.00402e-05
4.00406e-05
4.0041e-05
4.00415e-05
4.0042e-05
4.00425e-05
4.00431e-05
4.00436e-05
4.00441e-05
4.00447e-05
4.00452e-05
4.00458e-05
4.00463e-05
4.00468e-05
4.00473e-05
4.00478e-05
4.00482e-05
4.00487e-05
4.00492e-05
4.00496e-05
4.005e-05
4.00504e-05
4.00508e-05
4.00511e-05
4.00515e-05
4.00518e-05
4.00521e-05
4.00524e-05
4.00527e-05
4.0053e-05
4.00533e-05
4.00535e-05
4.00538e-05
4.0054e-05
4.00543e-05
4.00545e-05
4.00547e-05
4.00549e-05
4.0039e-05
4.00388e-05
4.00388e-05
4.00389e-05
4.00393e-05
4.00397e-05
4.00402e-05
4.00407e-05
4.00412e-05
4.00418e-05
4.00423e-05
4.00429e-05
4.00434e-05
4.0044e-05
4.00445e-05
4.0045e-05
4.00456e-05
4.00461e-05
4.00466e-05
4.00471e-05
4.00475e-05
4.0048e-05
4.00484e-05
4.00489e-05
4.00493e-05
4.00496e-05
4.005e-05
4.00504e-05
4.00507e-05
4.0051e-05
4.00513e-05
4.00516e-05
4.00519e-05
4.00521e-05
4.00524e-05
4.00527e-05
4.00529e-05
4.00531e-05
4.00533e-05
4.00536e-05
4.00537e-05
4.00374e-05
4.00373e-05
4.00373e-05
4.00375e-05
4.00378e-05
4.00383e-05
4.00387e-05
4.00392e-05
4.00398e-05
4.00403e-05
4.00408e-05
4.00414e-05
4.0042e-05
4.00425e-05
4.00431e-05
4.00436e-05
4.00441e-05
4.00447e-05
4.00452e-05
4.00457e-05
4.00462e-05
4.00466e-05
4.00471e-05
4.00475e-05
4.00479e-05
4.00483e-05
4.00486e-05
4.0049e-05
4.00493e-05
4.00496e-05
4.00499e-05
4.00502e-05
4.00505e-05
4.00508e-05
4.0051e-05
4.00513e-05
4.00515e-05
4.00517e-05
4.00519e-05
4.00522e-05
4.00523e-05
4.00358e-05
4.00357e-05
4.00357e-05
4.0036e-05
4.00363e-05
4.00367e-05
4.00371e-05
4.00376e-05
4.00381e-05
4.00386e-05
4.00392e-05
4.00397e-05
4.00403e-05
4.00408e-05
4.00414e-05
4.00419e-05
4.00425e-05
4.0043e-05
4.00435e-05
4.0044e-05
4.00445e-05
4.0045e-05
4.00454e-05
4.00459e-05
4.00463e-05
4.00467e-05
4.0047e-05
4.00474e-05
4.00477e-05
4.0048e-05
4.00483e-05
4.00486e-05
4.00489e-05
4.00491e-05
4.00494e-05
4.00496e-05
4.00498e-05
4.005e-05
4.00502e-05
4.00505e-05
4.00506e-05
4.00341e-05
4.0034e-05
4.00341e-05
4.00343e-05
4.00346e-05
4.00349e-05
4.00353e-05
4.00358e-05
4.00362e-05
4.00367e-05
4.00373e-05
4.00378e-05
4.00384e-05
4.00389e-05
4.00395e-05
4.004e-05
4.00406e-05
4.00411e-05
4.00416e-05
4.00421e-05
4.00426e-05
4.00431e-05
4.00436e-05
4.0044e-05
4.00444e-05
4.00448e-05
4.00451e-05
4.00455e-05
4.00458e-05
4.00461e-05
4.00464e-05
4.00467e-05
4.0047e-05
4.00472e-05
4.00474e-05
4.00477e-05
4.00479e-05
4.00481e-05
4.00483e-05
4.00485e-05
4.00486e-05
4.00323e-05
4.00322e-05
4.00323e-05
4.00324e-05
4.00327e-05
4.0033e-05
4.00333e-05
4.00337e-05
4.00342e-05
4.00346e-05
4.00351e-05
4.00357e-05
4.00362e-05
4.00368e-05
4.00373e-05
4.00379e-05
4.00384e-05
4.0039e-05
4.00395e-05
4.004e-05
4.00405e-05
4.00409e-05
4.00414e-05
4.00418e-05
4.00422e-05
4.00426e-05
4.0043e-05
4.00433e-05
4.00436e-05
4.00439e-05
4.00442e-05
4.00445e-05
4.00447e-05
4.0045e-05
4.00452e-05
4.00454e-05
4.00456e-05
4.00458e-05
4.0046e-05
4.00462e-05
4.00463e-05
4.00303e-05
4.00303e-05
4.00303e-05
4.00305e-05
4.00306e-05
4.00308e-05
4.00311e-05
4.00315e-05
4.00319e-05
4.00323e-05
4.00328e-05
4.00333e-05
4.00338e-05
4.00344e-05
4.00349e-05
4.00355e-05
4.0036e-05
4.00365e-05
4.0037e-05
4.00375e-05
4.0038e-05
4.00385e-05
4.00389e-05
4.00394e-05
4.00398e-05
4.00401e-05
4.00405e-05
4.00408e-05
4.00411e-05
4.00414e-05
4.00417e-05
4.0042e-05
4.00422e-05
4.00424e-05
4.00426e-05
4.00428e-05
4.0043e-05
4.00432e-05
4.00434e-05
4.00435e-05
4.00437e-05
4.00283e-05
4.00283e-05
4.00282e-05
4.00283e-05
4.00284e-05
4.00285e-05
4.00287e-05
4.0029e-05
4.00294e-05
4.00298e-05
4.00302e-05
4.00307e-05
4.00312e-05
4.00317e-05
4.00322e-05
4.00328e-05
4.00333e-05
4.00338e-05
4.00343e-05
4.00348e-05
4.00353e-05
4.00357e-05
4.00362e-05
4.00366e-05
4.0037e-05
4.00373e-05
4.00377e-05
4.0038e-05
4.00383e-05
4.00386e-05
4.00388e-05
4.00391e-05
4.00393e-05
4.00395e-05
4.00397e-05
4.00399e-05
4.00401e-05
4.00402e-05
4.00404e-05
4.00405e-05
4.00406e-05
4.00261e-05
4.00261e-05
4.0026e-05
4.00259e-05
4.00259e-05
4.0026e-05
4.00261e-05
4.00264e-05
4.00267e-05
4.0027e-05
4.00274e-05
4.00278e-05
4.00283e-05
4.00288e-05
4.00293e-05
4.00298e-05
4.00303e-05
4.00308e-05
4.00313e-05
4.00317e-05
4.00322e-05
4.00326e-05
4.0033e-05
4.00334e-05
4.00338e-05
4.00341e-05
4.00345e-05
4.00348e-05
4.0035e-05
4.00353e-05
4.00356e-05
4.00358e-05
4.0036e-05
4.00362e-05
4.00364e-05
4.00366e-05
4.00367e-05
4.00369e-05
4.0037e-05
4.00371e-05
4.00372e-05
4.00238e-05
4.00237e-05
4.00235e-05
4.00234e-05
4.00233e-05
4.00233e-05
4.00234e-05
4.00235e-05
4.00238e-05
4.0024e-05
4.00244e-05
4.00247e-05
4.00252e-05
4.00256e-05
4.0026e-05
4.00265e-05
4.00269e-05
4.00274e-05
4.00278e-05
4.00283e-05
4.00287e-05
4.00291e-05
4.00295e-05
4.00298e-05
4.00302e-05
4.00305e-05
4.00308e-05
4.00311e-05
4.00314e-05
4.00316e-05
4.00318e-05
4.0032e-05
4.00322e-05
4.00324e-05
4.00325e-05
4.00327e-05
4.00328e-05
4.00329e-05
4.0033e-05
4.00331e-05
4.00331e-05
4.00213e-05
4.00211e-05
4.00209e-05
4.00207e-05
4.00205e-05
4.00204e-05
4.00204e-05
4.00205e-05
4.00206e-05
4.00209e-05
4.00211e-05
4.00214e-05
4.00217e-05
4.00221e-05
4.00224e-05
4.00228e-05
4.00232e-05
4.00236e-05
4.0024e-05
4.00244e-05
4.00248e-05
4.00251e-05
4.00255e-05
4.00258e-05
4.00261e-05
4.00264e-05
4.00266e-05
4.00269e-05
4.00271e-05
4.00273e-05
4.00275e-05
4.00277e-05
4.00279e-05
4.00281e-05
4.00282e-05
4.00283e-05
4.00284e-05
4.00286e-05
4.00286e-05
4.00287e-05
4.00288e-05
4.00186e-05
4.00184e-05
4.00181e-05
4.00178e-05
4.00176e-05
4.00174e-05
4.00173e-05
4.00173e-05
4.00174e-05
4.00175e-05
4.00176e-05
4.00178e-05
4.0018e-05
4.00183e-05
4.00185e-05
4.00188e-05
4.00191e-05
4.00194e-05
4.00197e-05
4.002e-05
4.00203e-05
4.00206e-05
4.00209e-05
4.00212e-05
4.00214e-05
4.00217e-05
4.00219e-05
4.00221e-05
4.00223e-05
4.00225e-05
4.00226e-05
4.00228e-05
4.00229e-05
4.0023e-05
4.00231e-05
4.00231e-05
4.00232e-05
4.00232e-05
4.00232e-05
4.00232e-05
4.00232e-05
4.00157e-05
4.00155e-05
4.00151e-05
4.00148e-05
4.00145e-05
4.00143e-05
4.00142e-05
4.00141e-05
4.0014e-05
4.0014e-05
4.0014e-05
4.0014e-05
4.00141e-05
4.00142e-05
4.00143e-05
4.00144e-05
4.00146e-05
4.00148e-05
4.0015e-05
4.00151e-05
4.00153e-05
4.00155e-05
4.00157e-05
4.00158e-05
4.0016e-05
4.00162e-05
4.00163e-05
4.00164e-05
4.00166e-05
4.00167e-05
4.00168e-05
4.00169e-05
4.0017e-05
4.00171e-05
4.00172e-05
4.00173e-05
4.00174e-05
4.00175e-05
4.00176e-05
4.00176e-05
4.00177e-05
4.00126e-05
4.00124e-05
4.0012e-05
4.00117e-05
4.00114e-05
4.00111e-05
4.00109e-05
4.00107e-05
4.00106e-05
4.00104e-05
4.00103e-05
4.00101e-05
4.001e-05
4.00099e-05
4.00099e-05
4.00098e-05
4.00098e-05
4.00098e-05
4.00098e-05
4.00098e-05
4.00098e-05
4.00099e-05
4.001e-05
4.001e-05
4.00101e-05
4.00102e-05
4.00103e-05
4.00104e-05
4.00105e-05
4.00106e-05
4.00106e-05
4.00107e-05
4.00107e-05
4.00107e-05
4.00107e-05
4.00106e-05
4.00105e-05
4.00105e-05
4.00104e-05
4.00104e-05
4.00103e-05
4.00093e-05
4.00091e-05
4.00087e-05
4.00085e-05
4.00082e-05
4.00079e-05
4.00077e-05
4.00075e-05
4.00072e-05
4.00069e-05
4.00067e-05
4.00064e-05
4.00061e-05
4.00058e-05
4.00055e-05
4.00053e-05
4.0005e-05
4.00049e-05
4.00047e-05
4.00045e-05
4.00044e-05
4.00043e-05
4.00043e-05
4.00043e-05
4.00043e-05
4.00043e-05
4.00043e-05
4.00044e-05
4.00044e-05
4.00045e-05
4.00045e-05
4.00045e-05
4.00045e-05
4.00045e-05
4.00045e-05
4.00045e-05
4.00045e-05
4.00045e-05
4.00045e-05
4.00046e-05
4.00046e-05
4.00058e-05
4.00056e-05
4.00054e-05
4.00052e-05
4.0005e-05
4.00048e-05
4.00046e-05
4.00044e-05
4.00041e-05
4.00038e-05
4.00034e-05
4.0003e-05
4.00026e-05
4.00022e-05
4.0002e-05
4.0002e-05
4.0002e-05
4.00022e-05
4.00024e-05
4.00027e-05
4.00029e-05
4.00031e-05
4.00033e-05
4.00035e-05
4.00037e-05
4.00038e-05
4.0004e-05
4.00042e-05
4.00043e-05
4.00044e-05
4.00045e-05
4.00046e-05
4.00047e-05
4.00048e-05
4.00048e-05
4.00049e-05
4.00049e-05
4.0005e-05
4.0005e-05
4.0005e-05
4.00051e-05
4.0002e-05
4.00019e-05
4.00018e-05
4.00018e-05
4.00017e-05
4.00017e-05
4.00016e-05
4.00015e-05
4.00014e-05
4.00012e-05
4.0001e-05
4.00006e-05
4.00005e-05
4.00006e-05
4.0001e-05
4.00016e-05
4.00023e-05
4.00032e-05
4.00041e-05
4.00052e-05
4.00063e-05
4.00076e-05
4.00089e-05
4.00102e-05
4.00116e-05
4.00131e-05
4.00145e-05
4.00159e-05
4.00172e-05
4.00184e-05
4.00195e-05
4.00206e-05
4.00215e-05
4.00224e-05
4.00232e-05
4.0024e-05
4.00247e-05
4.00254e-05
4.0026e-05
4.00266e-05
4.0027e-05
0.00450435
0.00620028
0.00703202
0.00749582
0.00775402
0.00785369
0.00781119
0.00763944
0.00733331
0.00690664
0.00636367
0.00570755
0.0049421
0.00407298
0.0031344
0.0021854
0.00126
0.0005503
9.90121e-05
0.000159836
4.22991e-05
1.07275e-05
2.35713e-05
3.72062e-05
4.51618e-05
4.43415e-05
4.11586e-05
3.92806e-05
3.92283e-05
3.97853e-05
4.01569e-05
4.02174e-05
4.01407e-05
4.00721e-05
4.00527e-05
4.00663e-05
4.00886e-05
4.01061e-05
4.01159e-05
4.01205e-05
4.01227e-05
4.01237e-05
4.01237e-05
4.01225e-05
4.01201e-05
4.01172e-05
4.0114e-05
4.01112e-05
4.01089e-05
4.01073e-05
4.01062e-05
4.01057e-05
4.01055e-05
4.01056e-05
4.0106e-05
4.01065e-05
4.01072e-05
4.01081e-05
4.0109e-05
4.01101e-05
4.01113e-05
4.01126e-05
4.01141e-05
4.01156e-05
4.01172e-05
4.01189e-05
4.01206e-05
4.01223e-05
4.01241e-05
4.0126e-05
4.01278e-05
4.01297e-05
4.01311e-05
4.01342e-05
0.00647018
0.00838588
0.00936698
0.00986913
0.010143
0.0102648
0.0102567
0.0101332
0.0098972
0.00954925
0.00908821
0.00851169
0.00781694
0.00700146
0.00606409
0.005017
0.00386772
0.0026995
0.00158929
0.000725601
0.000170053
0.000205559
6.31354e-05
2.5336e-05
6.72817e-06
2.95229e-05
4.26526e-05
4.47749e-05
4.24981e-05
4.00803e-05
3.92452e-05
3.94293e-05
3.98577e-05
4.01243e-05
4.01817e-05
4.01356e-05
4.00861e-05
4.00728e-05
4.00881e-05
4.01104e-05
4.01256e-05
4.01309e-05
4.01297e-05
4.01263e-05
4.01227e-05
4.01199e-05
4.01171e-05
4.01144e-05
4.0112e-05
4.01099e-05
4.01084e-05
4.01075e-05
4.01071e-05
4.01071e-05
4.01074e-05
4.01078e-05
4.01085e-05
4.01092e-05
4.01101e-05
4.01111e-05
4.01123e-05
4.01136e-05
4.0115e-05
4.01165e-05
4.01181e-05
4.01197e-05
4.01215e-05
4.01233e-05
4.01251e-05
4.01269e-05
4.01288e-05
4.01307e-05
4.01322e-05
4.01354e-05
0.00784815
0.0097993
0.0109244
0.0115858
0.0119874
0.0122018
0.0122791
0.0122516
0.0121289
0.0119067
0.0115783
0.0111392
0.0105854
0.00991245
0.00911254
0.00818007
0.00710697
0.0059036
0.00458992
0.00323425
0.0019489
0.000940437
0.000270009
7.55245e-05
3.61661e-05
1.32477e-05
1.12933e-06
2.44118e-05
3.97902e-05
4.48635e-05
4.41606e-05
4.15657e-05
3.98243e-05
3.93587e-05
3.96232e-05
4.00068e-05
4.02079e-05
4.02225e-05
4.01601e-05
4.01086e-05
4.00951e-05
4.01067e-05
4.01228e-05
4.01318e-05
4.0132e-05
4.01276e-05
4.01221e-05
4.01175e-05
4.01144e-05
4.01123e-05
4.01109e-05
4.01099e-05
4.01092e-05
4.01089e-05
4.01089e-05
4.01092e-05
4.01098e-05
4.01105e-05
4.01113e-05
4.01122e-05
4.01133e-05
4.01146e-05
4.01159e-05
4.01174e-05
4.0119e-05
4.01207e-05
4.01224e-05
4.01242e-05
4.01261e-05
4.0128e-05
4.01299e-05
4.01319e-05
4.01334e-05
4.01367e-05
0.0100717
0.011333
0.0119653
0.0126249
0.0131325
0.0134367
0.0136218
0.0137325
0.0137696
0.0137172
0.0135656
0.0133131
0.0129566
0.0124887
0.0118989
0.0111766
0.0103116
0.00929568
0.00812275
0.00679202
0.00533315
0.00382444
0.00239533
0.00125053
0.000482495
1.7454e-05
0.000144926
4.95793e-06
1.21367e-05
1.26267e-05
3.24584e-05
4.13709e-05
4.39283e-05
4.27393e-05
4.06104e-05
3.94259e-05
3.92969e-05
3.96793e-05
4.00565e-05
4.02328e-05
4.02391e-05
4.01791e-05
4.01279e-05
4.01088e-05
4.01124e-05
4.01221e-05
4.01277e-05
4.01269e-05
4.01223e-05
4.01172e-05
4.01134e-05
4.01114e-05
4.01107e-05
4.01106e-05
4.01108e-05
4.0111e-05
4.01114e-05
4.01119e-05
4.01126e-05
4.01134e-05
4.01145e-05
4.01157e-05
4.0117e-05
4.01185e-05
4.01201e-05
4.01217e-05
4.01235e-05
4.01253e-05
4.01272e-05
4.01291e-05
4.0131e-05
4.01331e-05
4.01346e-05
4.0138e-05
0.0115109
0.0127125
0.0134304
0.0138384
0.0140689
0.0141537
0.0143159
0.0145168
0.0146868
0.014781
0.0147998
0.0147538
0.0146346
0.0144227
0.0140993
0.0136518
0.0130704
0.0123427
0.0114564
0.0103969
0.00915565
0.0077325
0.00616495
0.00452071
0.00296846
0.00161149
0.000689507
0.0001087
1.01493e-05
2.46976e-05
2.66662e-05
2.23096e-05
2.19993e-05
3.6443e-05
4.33032e-05
4.44129e-05
4.24924e-05
4.04597e-05
3.94453e-05
3.93942e-05
3.97474e-05
4.00826e-05
4.02403e-05
4.02466e-05
4.01893e-05
4.01356e-05
4.01103e-05
4.01085e-05
4.01156e-05
4.01212e-05
4.01218e-05
4.0119e-05
4.01153e-05
4.01128e-05
4.01118e-05
4.01119e-05
4.01127e-05
4.01135e-05
4.01143e-05
4.01151e-05
4.01159e-05
4.0117e-05
4.01182e-05
4.01196e-05
4.01212e-05
4.01229e-05
4.01247e-05
4.01265e-05
4.01284e-05
4.01303e-05
4.01323e-05
4.01344e-05
4.01359e-05
4.01395e-05
0.0122178
0.0131109
0.0138698
0.0144518
0.0148551
0.0150757
0.0151924
0.0152611
0.015297
0.0152765
0.015293
0.015373
0.0154518
0.0154731
0.0154094
0.015257
0.0150046
0.0146294
0.0141096
0.0134266
0.0125641
0.0115047
0.0102399
0.00876762
0.00712777
0.00539169
0.00368412
0.00216429
0.00105088
0.000294101
8.75185e-05
5.66601e-05
1.47783e-05
1.24423e-05
6.7406e-06
2.74883e-05
3.91703e-05
4.40551e-05
4.40438e-05
4.21861e-05
4.03922e-05
3.95329e-05
3.94817e-05
3.97873e-05
4.00885e-05
4.02372e-05
4.02469e-05
4.01923e-05
4.01368e-05
4.01073e-05
4.01023e-05
4.0109e-05
4.01165e-05
4.01198e-05
4.01193e-05
4.0117e-05
4.01151e-05
4.01145e-05
4.01149e-05
4.01161e-05
4.01174e-05
4.01186e-05
4.01199e-05
4.01211e-05
4.01226e-05
4.01241e-05
4.01259e-05
4.01277e-05
4.01296e-05
4.01316e-05
4.01336e-05
4.01358e-05
4.01374e-05
4.0141e-05
0.011671
0.012083
0.0125741
0.01315
0.0137665
0.0143553
0.0148587
0.0152559
0.015547
0.0157279
0.0158243
0.0158732
0.0158888
0.0158541
0.0158166
0.0158408
0.0158664
0.0158257
0.0156778
0.0154052
0.0149885
0.0144016
0.0136189
0.0126167
0.0113804
0.00991527
0.00824287
0.00643517
0.00460762
0.00291437
0.00159099
0.000691665
0.000108134
1.54731e-05
3.26305e-05
3.51879e-05
2.69328e-05
1.25035e-05
2.89777e-05
3.88774e-05
4.36476e-05
4.37114e-05
4.20441e-05
4.04315e-05
3.96144e-05
3.95273e-05
3.97902e-05
4.00729e-05
4.02252e-05
4.02453e-05
4.01966e-05
4.01398e-05
4.01057e-05
4.00973e-05
4.01038e-05
4.01137e-05
4.01203e-05
4.01223e-05
4.01213e-05
4.01197e-05
4.01189e-05
4.01192e-05
4.01205e-05
4.01222e-05
4.0124e-05
4.01258e-05
4.01275e-05
4.01292e-05
4.01311e-05
4.0133e-05
4.0135e-05
4.01373e-05
4.01389e-05
4.01427e-05
0.00861593
0.0087382
0.0089426