/*--------------------------------*- C++ -*----------------------------------*\
| =========                 |                                                 |
| \\      /  F ield         | OpenFOAM: The Open Source CFD Toolbox           |
|  \\    /   O peration     | Version:  2312                                  |
|   \\  /    A nd           | Website:  www.openfoam.com                      |
|    \\/     M anipulation  |                                                 |
\*---------------------------------------------------------------------------*/
FoamFile
{
    version     2.0;
    format      ascii;
    arch        "LSB;label=32;scalar=64";
    class       volScalarField;
    location    "250";
    object      p;
}
// * * * * * * * * * * * * * * * * * * * * * * * * * * * * * * * * * * * * * //

dimensions      [0 2 -2 0 0 0 0];

internalField   nonuniform List<scalar> 
11040
(
-408.177
-773.468
-807.632
-718.848
-676.046
-676.324
-676.205
-659.214
-625.436
-580.412
-532.156
-487.672
-451.784
-423.926
-400.619
-379.134
-358.291
-337.572
-316.658
-295.179
-272.922
-250.316
-228.596
-208.916
-190.952
-173.874
-157.454
-141.646
-126.388
-111.596
-97.2363
-83.313
-69.8641
-56.9418
-44.6579
-33.1625
-22.6893
-13.2133
-5.28787
1.8681
5.47745
-213.277
-470.924
-589.391
-624.836
-648.654
-670.409
-677.318
-664.439
-632.424
-588.285
-540.362
-494.679
-456.868
-427.381
-403.023
-380.911
-359.672
-338.69
-317.602
-296.017
-273.716
-251.135
-229.419
-209.669
-191.628
-174.501
-158.045
-142.207
-126.922
-112.108
-97.7271
-83.7824
-70.3097
-57.358
-45.0371
-33.4965
-22.9777
-13.4474
-5.49302
1.81456
4.22273
-102.4
-319.416
-487.934
-570.264
-605.017
-628.98
-646.714
-647.841
-625.724
-586.835
-541.06
-496.114
-458.027
-428.041
-403.435
-381.279
-360.041
-339.043
-317.918
-296.303
-274.006
-251.487
-229.813
-210.02
-191.938
-174.803
-158.344
-142.502
-127.215
-112.4
-98.0185
-84.0717
-70.5941
-57.6327
-45.295
-33.7303
-23.1836
-13.6078
-5.63694
1.93218
4.43322
-41.525
-202.084
-362.957
-470.775
-527.79
-563.117
-588.876
-600.056
-591.152
-564.836
-528.543
-489.651
-454.218
-424.938
-400.543
-378.648
-357.756
-337.162
-316.484
-295.327
-273.457
-251.341
-229.937
-210.211
-192.135
-175.017
-158.574
-142.745
-127.473
-112.675
-98.3118
-84.3808
-70.914
-57.9567
-45.6125
-34.031
-23.4546
-13.8274
-5.81077
2.03575
5.05176
-6.35407
-123.365
-254.745
-367.526
-445.31
-496.465
-531.226
-550.67
-552.266
-536.802
-509.531
-477.029
-445.191
-417.542
-394.057
-372.983
-352.896
-333.07
-313.109
-292.621
-271.37
-249.882
-229.026
-209.606
-191.728
-174.81
-158.544
-142.855
-127.692
-112.982
-98.6864
-84.8077
-71.3795
-58.4479
-46.1139
-34.526
-23.9201
-14.2355
-6.13258
2.00213
5.47659
11.6203
-74.2577
-175.52
-277.302
-361.59
-423.556
-467.64
-496.288
-508.358
-503.762
-486.133
-461.102
-434.09
-408.932
-386.68
-366.433
-347.05
-327.864
-308.515
-288.672
-268.091
-247.351
-227.242
-208.292
-190.695
-174.025
-157.986
-142.495
-127.516
-112.987
-98.8697
-85.161
-71.8867
-59.0841
-46.8431
-35.3054
-24.6951
-14.9516
-6.71738
1.69858
5.48453
20.3401
-44.0944
-119.816
-202.31
-280.619
-346.23
-397.412
-434.538
-456.747
-463.434
-456.545
-440.288
-419.379
-397.764
-377.426
-358.419
-340.045
-321.739
-303.174
-284.075
-264.218
-244.236
-224.875
-206.445
-189.191
-172.848
-157.138
-141.959
-127.267
-113.004
-99.1301
-85.6387
-72.5544
-59.9122
-47.7987
-36.3508
-25.7759
-16.0119
-7.65601
0.956955
4.92104
23.4354
-26.1177
-82.8611
-146.695
-212.838
-274.616
-327.604
-369.766
-399.673
-416.152
-419.652
-412.77
-399.176
-382.495
-365.199
-348.174
-331.293
-314.216
-296.706
-278.562
-259.61
-240.511
-221.969
-204.145
-187.297
-171.306
-155.95
-141.124
-126.788
-112.899
-99.4172
-86.3267
-73.6363
-61.3528
-49.5336
-38.284
-27.776
-17.9404
-9.33311
-0.468079
4.00821
23.3415
-15.6293
-58.8104
-107.353
-159.902
-212.868
-262.382
-305.372
-339.579
-363.262
-375.725
-378.031
-372.509
-361.99
-348.932
-334.775
-319.99
-304.584
-288.477
-271.574
-253.775
-235.751
-218.186
-201.15
-184.876
-169.351
-154.426
-140.005
-126.055
-112.55
-99.4694
-86.8087
-74.5859
-62.8036
-51.5021
-40.7481
-30.6503
-21.0692
-12.4084
-3.48546
2.45112
21.4372
-9.81901
-43.3547
-80.4305
-121.102
-163.942
-206.627
-246.541
-281.251
-308.687
-327.466
-337.456
-339.655
-335.82
-327.93
-317.561
-305.602
-292.422
-278.153
-262.837
-246.471
-229.736
-213.314
-197.239
-181.713
-166.798
-152.422
-138.516
-125.053
-112.018
-99.4026
-87.2067
-75.4508
-64.1401
-53.3165
-43.0484
-33.4265
-24.3187
-15.9182
-7.50758
-0.274699
18.6185
-6.85308
-33.4117
-62.1096
-93.42
-127
-161.795
-196.172
-228.226
-256.025
-277.931
-293.124
-301.604
-304.067
-301.72
-295.846
-287.437
-277.104
-265.186
-251.878
-237.29
-222.116
-207.047
-192.133
-177.561
-163.439
-149.764
-136.506
-123.651
-111.199
-99.1496
-87.5117
-76.3046
-65.5316
-55.2247
-45.4451
-36.2582
-27.58
-19.4793
-11.7122
-4.50871
15.4493
-5.57877
-26.9764
-49.5607
-73.8457
-99.916
-127.431
-155.574
-183.15
-208.725
-230.836
-248.426
-260.948
-268.329
-271.005
-269.723
-265.266
-258.27
-249.185
-238.32
-225.891
-212.587
-199.117
-185.588
-172.193
-159.069
-146.271
-133.813
-121.705
-109.96
-98.591
-87.615
-77.054
-66.9106
-57.2094
-48.0037
-39.3405
-31.1676
-23.5174
-16.368
-9.83006
12.2912
-5.24321
-22.7247
-40.778
-59.8462
-80.1375
-101.63
-123.995
-146.603
-168.555
-188.788
-206.361
-220.554
-230.902
-237.302
-239.973
-239.33
-235.828
-229.877
-221.809
-211.893
-200.776
-189.174
-177.274
-165.292
-153.393
-141.677
-130.2
-119
-108.106
-97.5463
-87.347
-77.5346
-68.1142
-59.1082
-50.5657
-42.5266
-34.9546
-27.874
-21.3136
-15.35
9.35606
-5.37372
-19.811
-34.4378
-49.609
-65.5419
-82.3281
-99.8782
-117.905
-135.912
-153.228
-169.171
-183.116
-194.501
-202.965
-208.379
-210.811
-210.457
-207.566
-202.396
-195.191
-186.498
-176.997
-166.952
-156.61
-146.161
-135.737
-125.432
-115.311
-105.424
-95.8123
-86.5125
-77.5571
-68.9565
-60.7332
-52.9328
-45.5914
-38.6805
-32.2198
-26.2474
-20.8077
6.75912
-5.67609
-17.6949
-29.6738
-41.8875
-54.5277
-67.7128
-81.4518
-95.6336
-110.01
-124.195
-137.758
-150.254
-161.21
-170.218
-176.996
-181.402
-183.415
-183.102
-180.584
-176.021
-169.805
-162.527
-154.491
-145.964
-137.151
-128.208
-119.255
-110.381
-101.654
-93.1292
-84.8532
-76.865
-69.1811
-61.826
-54.8421
-48.2628
-42.0651
-36.2657
-30.9006
-25.9966
4.57996
-5.94937
-16.0137
-25.9087
-35.8419
-45.9735
-56.417
-67.2146
-78.3352
-89.6629
-100.988
-112.061
-122.602
-132.274
-140.743
-147.716
-152.973
-156.377
-157.863
-157.432
-155.134
-151.192
-146.063
-140.046
-133.397
-126.321
-118.983
-111.514
-104.019
-96.5787
-89.2591
-82.1142
-75.1888
-68.5058
-62.0919
-55.9869
-50.2214
-44.7774
-39.6684
-34.9245
-30.5613
2.87027
-6.05357
-14.5071
-22.7253
-30.8631
-39.0527
-47.3938
-55.9347
-64.6764
-73.5678
-82.4979
-91.3275
-99.8921
-107.975
-115.338
-121.748
-126.996
-130.911
-133.372
-134.305
-133.682
-131.581
-128.315
-124.136
-119.267
-113.892
-108.166
-102.22
-96.1593
-90.0699
-84.0219
-78.0731
-72.2714
-66.644
-61.2192
-56.0341
-51.1164
-46.4532
-42.0566
-37.951
-34.1453
1.61722
-6.01507
-13.1982
-20.119
-26.8929
-33.6317
-40.421
-47.3052
-54.2957
-61.3701
-68.4672
-75.5073
-82.3938
-88.9894
-95.135
-100.663
-105.407
-109.219
-111.972
-113.567
-113.941
-113.083
-111.187
-108.446
-105.035
-101.108
-96.7985
-92.2218
-87.4759
-82.6424
-77.7889
-72.9719
-68.2381
-63.6166
-59.1358
-54.829
-50.7215
-46.8051
-43.091
-39.5997
-36.336
0.722702
-5.89742
-12.0979
-18.0275
-23.7734
-29.4329
-35.08
-40.7535
-46.4675
-52.2129
-57.9539
-63.6425
-69.2196
-74.5965
-79.6666
-84.3125
-88.4129
-91.8496
-94.5135
-96.3111
-97.1716
-97.0418
-96.0398
-94.3056
-91.9692
-89.1508
-85.9597
-82.4928
-78.8342
-75.0561
-71.2194
-67.3753
-63.5668
-59.8221
-56.1683
-52.6348
-49.2441
-45.992
-42.8895
-39.9539
-37.189
0.0968666
-5.70968
-11.1285
-16.2781
-21.2256
-26.0575
-30.8386
-35.6023
-40.3628
-45.1173
-49.8436
-54.511
-59.0814
-63.4953
-67.6796
-71.5521
-75.0253
-78.0102
-80.4213
-82.1796
-83.2205
-83.4785
-83.0252
-81.9607
-80.3798
-78.3737
-76.0286
-73.4226
-70.6255
-67.6975
-64.6911
-61.6504
-58.6134
-55.6056
-52.6517
-49.7769
-47.001
-44.3224
-41.7521
-39.3044
-36.9833
-0.336652
-5.47396
-10.2554
-14.7746
-19.0841
-23.2616
-27.3646
-31.4219
-35.4468
-39.4396
-43.3862
-47.2657
-51.0527
-54.7056
-58.1734
-61.3975
-64.3148
-66.8598
-68.9675
-70.5761
-71.6318
-72.071
-71.9387
-71.3071
-70.2446
-68.8202
-67.1004
-65.1473
-63.0165
-60.7574
-58.4132
-56.0211
-53.6131
-51.2116
-48.838
-46.5136
-44.2555
-42.0638
-39.9488
-37.9224
-35.989
-0.629259
-5.20606
-9.45711
-13.4557
-17.2433
-20.8909
-24.4496
-27.9445
-31.3878
-34.7817
-38.1165
-41.3781
-44.5484
-47.5977
-50.4892
-53.1808
-55.6265
-57.7784
-59.5879
-61.0078
-61.9964
-62.4979
-62.5432
-62.1849
-61.4726
-60.4583
-59.1938
-57.7274
-56.1033
-54.3609
-52.5354
-50.6572
-48.7526
-46.8407
-44.9398
-43.0675
-41.2379
-39.4523
-37.7204
-36.0515
-34.4507
-0.818532
-4.91937
-8.72243
-12.2839
-15.6372
-18.8477
-21.9608
-24.9988
-27.9727
-30.8856
-33.7312
-36.4994
-39.177
-41.7424
-44.1686
-46.4246
-48.4771
-50.2905
-51.8291
-53.0576
-53.9444
-54.4433
-54.5779
-54.3879
-53.9095
-53.1824
-52.2466
-51.14
-49.8973
-48.55
-47.1259
-45.6499
-44.1432
-42.6219
-41.1009
-39.5949
-38.1154
-36.6642
-35.25
-33.8802
-32.5601
-0.931367
-4.62365
-8.04352
-11.2332
-14.22
-17.0642
-19.8068
-22.4672
-25.0558
-27.5762
-30.0243
-32.3927
-34.6719
-36.8457
-38.894
-40.7941
-42.5212
-44.0492
-45.3518
-46.4029
-47.1791
-47.6436
-47.8161
-47.7271
-47.4041
-46.8774
-46.1784
-45.3369
-44.3801
-43.3329
-42.2176
-41.0539
-39.8592
-38.6464
-37.4281
-36.2159
-35.0194
-33.8403
-32.6867
-31.5639
-30.4776
-0.987657
-4.32602
-7.41496
-10.285
-12.959
-15.4926
-17.9229
-20.2672
-22.5352
-24.7306
-26.8511
-28.8913
-30.8443
-32.6978
-34.437
-36.0446
-37.5026
-38.7916
-39.8925
-40.7861
-41.4555
-41.8718
-42.0526
-42.0223
-41.8017
-41.4149
-40.8864
-40.2399
-39.4969
-38.6771
-37.7982
-36.8761
-35.9248
-34.9546
-33.9758
-32.9979
-32.0286
-31.0695
-30.1278
-29.2073
-28.3138
-1.00205
-4.03165
-6.83236
-9.42531
-11.8296
-14.0972
-16.2615
-18.3381
-20.336
-22.2593
-24.1066
-25.8744
-27.5574
-29.1466
-30.6307
-31.997
-33.232
-34.3218
-35.2522
-36.0094
-36.5815
-36.946
-37.1196
-37.1218
-36.9691
-36.6804
-36.2756
-35.7733
-35.1908
-34.5438
-33.8465
-33.1113
-32.3494
-31.5696
-30.78
-29.9883
-29.2007
-28.4186
-27.6482
-26.8924
-26.1569
-0.985627
-3.74413
-6.29214
-8.643
-10.8132
-12.8509
-14.7866
-16.6343
-18.4025
-20.0954
-21.7127
-23.2519
-24.7093
-26.0783
-27.3504
-28.5163
-29.566
-30.4893
-31.2762
-31.9168
-32.4028
-32.7172
-32.8756
-32.8943
-32.7862
-32.5668
-32.252
-31.857
-31.3956
-30.8802
-30.3223
-29.7318
-29.1178
-28.4872
-27.847
-27.203
-26.5603
-25.9203
-25.2882
-24.6659
-24.0592
-0.946652
-3.466
-5.79114
-7.9293
-9.89484
-11.7326
-13.4702
-15.1206
-16.6917
-18.1879
-19.6096
-20.9554
-22.2228
-23.4068
-24.5014
-25.4997
-26.3946
-27.1786
-27.8449
-28.3865
-28.7978
-29.0662
-29.2063
-29.2319
-29.1535
-28.9834
-28.7351
-28.4206
-28.0512
-27.6368
-27.1867
-26.7089
-26.2107
-25.6978
-25.1757
-24.6493
-24.1225
-23.5965
-23.076
-22.562
-22.0601
-0.891518
-3.19891
-5.32661
-7.27689
-9.06254
-10.7251
-12.2901
-13.7691
-15.1699
-16.4968
-17.751
-18.9318
-20.0377
-21.0653
-22.0102
-22.8676
-23.6324
-24.2995
-24.8643
-25.322
-25.6691
-25.8963
-26.0176
-26.0445
-25.9855
-25.8512
-25.6521
-25.3986
-25.0996
-24.7632
-24.3969
-24.0074
-23.6003
-23.1802
-22.7518
-22.3191
-21.8851
-21.4509
-21.0204
-20.5941
-20.1776
-0.825039
-2.944
-4.89601
-6.67967
-8.3064
-9.81489
-11.2283
-12.5577
-13.8102
-14.9904
-16.1001
-17.1391
-18.1068
-19.0011
-19.8189
-20.5571
-21.2121
-21.7807
-22.2598
-22.6464
-22.9388
-23.1299
-23.2331
-23.2581
-23.2122
-23.1037
-22.9419
-22.7351
-22.4906
-22.2151
-21.9147
-21.5946
-21.2597
-20.9135
-20.5601
-20.2024
-19.8432
-19.4831
-19.1256
-18.7708
-18.4239
-0.750991
-2.70187
-4.49713
-6.13243
-7.61822
-8.99038
-10.2702
-11.468
-12.5908
-13.6431
-14.6272
-15.5436
-16.3923
-17.1723
-17.8815
-18.5181
-19.08
-19.5651
-19.9717
-20.2982
-20.5437
-20.7035
-20.79
-20.8116
-20.7741
-20.6849
-20.5514
-20.3806
-20.1786
-19.951
-19.7025
-19.4376
-19.1601
-18.8731
-18.5797
-18.2824
-17.9835
-17.6834
-17.3851
-17.0885
-16.7985
-0.672236
-2.47291
-4.12787
-5.63072
-6.99104
-8.24214
-9.40367
-10.4853
-11.4938
-12.434
-13.3083
-14.118
-14.8636
-15.5448
-16.1608
-16.7104
-17.1928
-17.6069
-17.9519
-18.2272
-18.4329
-18.5656
-18.6372
-18.6545
-18.6227
-18.5478
-18.4363
-18.2938
-18.1255
-17.9359
-17.7289
-17.5083
-17.2772
-17.0379
-16.7932
-16.545
-16.2952
-16.0442
-15.7945
-15.5457
-15.3025
-0.591053
-2.25725
-3.78643
-5.1707
-6.419
-7.56217
-8.61844
-9.59692
-10.5044
-11.3456
-12.1235
-12.8397
-13.4954
-14.091
-14.6262
-15.101
-15.5152
-15.8685
-16.161
-16.3927
-16.5643
-16.6738
-16.7319
-16.7448
-16.7166
-16.6525
-16.558
-16.4378
-16.2962
-16.1368
-15.9632
-15.7781
-15.5842
-15.3835
-15.1781
-14.9698
-14.7599
-14.5489
-14.3388
-14.1292
-13.9244
-0.509178
-2.0549
-3.47111
-4.74906
-5.89706
-6.94372
-7.90594
-8.79251
-9.61004
-10.3636
-11.0562
-11.6902
-12.267
-12.7877
-13.2528
-13.6627
-14.018
-14.3191
-14.5666
-14.761
-14.9035
-14.9929
-15.0394
-15.048
-15.0223
-14.9667
-14.8858
-14.7836
-14.6638
-14.5292
-14.3828
-14.227
-14.0638
-13.895
-13.7222
-13.5469
-13.3703
-13.1926
-13.0157
-12.839
-12.6664
-0.428019
-1.86574
-3.18048
-4.36292
-5.42094
-6.38101
-7.25892
-8.06317
-8.80037
-9.47569
-10.0926
-10.6537
-11.1609
-11.6158
-12.0195
-12.3729
-12.6771
-12.9331
-13.1417
-13.3041
-13.4215
-13.4936
-13.5295
-13.5339
-13.5094
-13.4601
-13.3896
-13.3016
-13.1989
-13.0841
-12.9594
-12.827
-12.6885
-12.5453
-12.3988
-12.2502
-12.1004
-11.9497
-11.7997
-11.6496
-11.5032
-0.348664
-1.68969
-2.91321
-4.00983
-4.98694
-5.86912
-6.67117
-7.4014
-8.06646
-8.67168
-9.22088
-9.71699
-10.1625
-10.5592
-10.9088
-11.2128
-11.4724
-11.689
-11.8641
-11.9988
-12.0948
-12.1521
-12.1792
-12.18
-12.1568
-12.113
-12.0518
-11.976
-11.8882
-11.7905
-11.6847
-11.5725
-11.4554
-11.3345
-11.2108
-11.0854
-10.9591
-10.832
-10.7055
-10.5789
-10.4555
-0.272036
-1.52663
-2.6683
-3.68773
-4.59198
-5.40386
-6.13738
-6.80075
-7.40069
-7.94276
-8.43108
-8.86896
-9.25924
-9.60423
-9.90591
-10.1661
-10.3865
-10.5688
-10.7144
-10.8248
-10.9018
-10.9458
-10.9643
-10.9608
-10.9372
-10.8965
-10.8412
-10.7741
-10.697
-10.6118
-10.5199
-10.4229
-10.3219
-10.2177
-10.1114
-10.0037
-9.89528
-9.78626
-9.67773
-9.56904
-9.4632
-0.19885
-1.37648
-2.44485
-3.395
-4.23362
-4.98188
-5.65317
-6.25575
-6.79654
-7.28132
-7.71458
-8.09993
-8.44058
-8.73918
-8.99807
-9.21941
-9.40516
-9.55719
-9.67726
-9.767
-9.8282
-9.86157
-9.87411
-9.86857
-9.84669
-9.81067
-9.76297
-9.70554
-9.64008
-9.568
-9.49061
-9.40901
-9.3242
-9.23692
-9.14792
-9.05778
-8.96712
-8.87602
-8.78541
-8.69462
-8.60641
-0.129728
-1.2391
-2.24204
-3.13008
-3.90963
-4.60036
-5.21508
-5.76215
-6.24876
-6.68107
-7.06399
-7.40153
-7.6972
-7.95393
-8.17433
-8.36076
-8.51536
-8.6401
-8.73676
-8.80694
-8.85233
-8.87375
-8.87753
-8.86611
-8.84095
-8.80413
-8.75769
-8.70342
-8.6427
-8.5768
-8.50676
-8.43351
-8.35782
-8.28033
-8.20156
-8.12201
-8.04215
-7.96204
-7.8824
-7.80265
-7.72518
-0.0652403
-1.11451
-2.05913
-2.89139
-3.61756
-4.25609
-4.81939
-5.31589
-5.75296
-6.13707
-6.47355
-6.76696
-7.02122
-7.23967
-7.42516
-7.58027
-7.70735
-7.80859
-7.88602
-7.94147
-7.97677
-7.99295
-7.99552
-7.98628
-7.96633
-7.93712
-7.90025
-7.85702
-7.80856
-7.75576
-7.69955
-7.64064
-7.57969
-7.51719
-7.45366
-7.38948
-7.32507
-7.26047
-7.19632
-7.13204
-7.06983
-0.00603645
-1.00323
-1.89648
-2.67871
-3.35617
-3.9464
-4.46194
-4.91166
-5.3033
-5.64346
-5.93765
-6.1906
-6.40661
-6.58939
-6.74219
-6.86773
-6.96827
-7.04569
-7.10163
-7.13752
-7.1549
-7.15486
-7.14266
-7.1203
-7.08898
-7.05037
-7.00601
-6.95723
-6.90496
-6.85008
-6.79319
-6.73488
-6.67556
-6.61559
-6.55525
-6.4948
-6.43449
-6.3743
-6.31467
-6.25514
-6.19742
0.0473853
-0.905945
-1.75529
-2.49411
-3.12815
-3.67386
-4.14391
-4.54816
-4.89542
-5.19326
-5.44776
-5.66381
-5.84551
-5.99648
-6.12014
-6.21978
-6.29857
-6.35931
-6.40443
-6.4358
-6.45506
-6.46299
-6.46322
-6.45644
-6.44292
-6.42332
-6.39854
-6.36929
-6.3363
-6.30015
-6.26149
-6.22082
-6.17867
-6.13541
-6.09147
-6.04709
-6.0026
-5.95809
-5.91398
-5.86983
-5.82729
0.094714
-0.8221
-1.63411
-2.33604
-2.93348
-3.44138
-3.8717
-4.23423
-4.53827
-4.79256
-5.00481
-5.18153
-5.32792
-5.44776
-5.54358
-5.61707
-5.66949
-5.70211
-5.71638
-5.71391
-5.69654
-5.66619
-5.62805
-5.58431
-5.5364
-5.48587
-5.43395
-5.38158
-5.32926
-5.27737
-5.22607
-5.17552
-5.12574
-5.07673
-5.02847
-4.98099
-4.93421
-4.88807
-4.8427
-4.79783
-4.7543
0.135421
-0.750414
-1.52755
-2.19336
-2.75525
-3.22874
-3.62609
-3.95671
-4.22877
-4.4496
-4.62598
-4.76453
-4.87197
-4.95495
-5.01968
-5.07153
-5.11462
-5.15165
-5.18407
-5.21237
-5.23661
-5.25608
-5.27132
-5.2814
-5.28567
-5.28406
-5.27698
-5.26488
-5.2484
-5.22815
-5.20485
-5.1791
-5.15155
-5.12267
-5.09295
-5.06269
-5.03231
-5.00192
-4.97187
-4.9419
-4.91317
0.168241
-0.694092
-1.44023
-2.06839
-2.58744
-3.0151
-3.36731
-3.65717
-3.89556
-4.09081
-4.24871
-4.37289
-4.46546
-4.5277
-4.56078
-4.56644
-4.54723
-4.50655
-4.44832
-4.37647
-4.29462
-4.20652
-4.11826
-4.03261
-3.95107
-3.87472
-3.80411
-3.73932
-3.68003
-3.62576
-3.57592
-3.52996
-3.48726
-3.44731
-3.40964
-3.37396
-3.33978
-3.30688
-3.27506
-3.24416
-3.21414
0.191929
-0.663492
-1.40008
-2.01315
-2.50693
-2.8955
-3.19448
-3.41954
-3.58624
-3.70926
-3.80178
-3.8751
-3.93841
-3.99858
-4.06009
-4.12506
-4.19362
-4.26441
-4.33528
-4.40388
-4.4683
-4.52643
-4.57622
-4.61601
-4.64532
-4.66445
-4.67418
-4.67551
-4.66953
-4.65758
-4.64109
-4.6212
-4.59889
-4.57488
-4.54983
-4.52417
-4.49837
-4.47268
-4.44729
-4.42238
-4.39799
0.205441
-0.66028
-1.4115
-2.04672
-2.56769
-2.98242
-3.29992
-3.52937
-3.68035
-3.76242
-3.78493
-3.75674
-3.6863
-3.58166
-3.45051
-3.30025
-3.13786
-2.96969
-2.80118
-2.63664
-2.47908
-2.33113
-2.19705
-2.07829
-1.9747
-1.88561
-1.81009
-1.74698
-1.69391
-1.64795
-1.60761
-1.5722
-1.54117
-1.51382
-1.48974
-1.46818
-1.44888
-1.43151
-1.41593
-1.40138
-1.38879
0.207049
-0.653319
-1.37314
-1.96727
-2.45418
-2.85402
-3.18384
-3.45694
-3.68374
-3.87253
-4.02989
-4.16115
-4.27058
-4.36166
-4.43707
-4.49886
-4.54851
-4.58718
-4.61589
-4.63566
-4.64774
-4.65321
-4.65103
-4.6413
-4.62549
-4.60508
-4.58115
-4.55457
-4.52759
-4.50239
-4.47956
-4.45907
-4.44084
-4.42501
-4.41148
-4.40044
-4.39174
-4.38537
-4.38115
-4.37924
-4.37885
27.7203
32.5324
31.2615
30.6099
29.1969
26.9923
24.7431
22.6795
20.7724
19.0122
17.4145
15.9792
14.6894
13.5293
12.484
11.5431
10.6935
9.92394
9.22643
8.59306
8.01635
7.49113
7.01142
6.57353
6.17199
5.80393
5.46544
5.15413
4.8672
4.60252
4.35788
4.13157
3.92167
3.72692
3.54573
3.37719
3.21978
3.07288
2.93501
2.8059
2.68432
2.56987
2.46176
2.35974
2.26296
2.1713
2.0836
2.00007
1.92039
1.84373
1.76994
1.69829
1.62872
1.5605
1.4936
1.42746
1.36194
1.29651
1.23131
1.16571
1.0996
1.03246
0.964163
0.894055
0.821988
0.747464
0.669866
0.589222
0.503876
0.416565
0.318305
0.231624
0.0983846
0.077807
27.1537
31.8311
30.7792
30.4005
29.064
26.8548
24.5968
22.5298
20.6194
18.8563
17.2581
15.8245
14.5378
13.3815
12.3407
11.4046
10.5606
9.79743
9.10722
8.48143
7.91175
7.39242
6.91783
6.48479
6.08815
5.72482
5.3908
5.08364
4.80063
4.53966
4.29855
4.07557
3.86883
3.67703
3.49863
3.33271
3.17779
3.03321
2.89756
2.77051
2.65089
2.53827
2.43191
2.33151
2.23632
2.14607
2.05974
1.97758
1.89918
1.82372
1.75107
1.6805
1.61195
1.54472
1.47873
1.41347
1.34878
1.28412
1.21969
1.15484
1.08944
1.02298
0.955339
0.885887
0.814459
0.740576
0.663628
0.583649
0.499005
0.412413
0.314983
0.229037
0.0970087
0.0768308
26.9073
31.0833
30.2938
30.1236
28.8777
26.6839
24.4231
22.3542
20.4407
18.6747
17.0758
15.6438
14.3605
13.2088
12.1736
11.2438
10.4063
9.64958
8.96609
8.34771
7.78648
7.2758
6.80928
6.38294
5.99205
5.63396
5.30515
5.00309
4.72496
4.46844
4.23145
4.01235
3.80931
3.62099
3.44587
3.28302
3.13098
2.98908
2.85598
2.73131
2.61394
2.50343
2.39906
2.30052
2.2071
2.11841
2.03367
1.95303
1.87603
1.80192
1.73054
1.66119
1.59377
1.52762
1.46265
1.39835
1.33457
1.2708
1.20726
1.14321
1.07857
1.01286
0.945928
0.877184
0.806444
0.733253
0.657005
0.577738
0.493846
0.40802
0.311476
0.226302
0.0955648
0.0757864
26.5395
30.4506
29.8811
29.8224
28.6515
26.4851
24.2285
22.161
20.2457
18.4768
16.8766
15.4452
14.164
13.0157
11.9852
11.0613
10.2305
9.48113
8.80479
8.19358
7.63959
7.13679
6.67925
6.26235
5.88044
5.52989
5.20736
4.9109
4.63823
4.38704
4.15516
3.9408
3.74211
3.55782
3.3865
3.22722
3.07857
2.93982
2.80968
2.68774
2.57296
2.46487
2.36277
2.26636
2.17495
2.08809
2.00517
1.92622
1.8508
1.7782
1.70823
1.64023
1.57407
1.50913
1.44528
1.38206
1.31928
1.25654
1.19392
1.13075
1.06694
1.00203
0.935878
0.867901
0.797908
0.725463
0.649968
0.571467
0.48838
0.403371
0.307773
0.223411
0.094047
0.0746757
26.1263
29.6882
29.2826
29.4139
28.3669
26.2437
23.9977
21.9398
20.0302
18.2636
16.6642
15.2333
13.9534
12.8073
11.7803
10.861
10.0359
9.29302
8.62375
8.02009
7.47376
6.9784
6.52823
6.11932
5.74666
5.40614
5.09327
4.80525
4.53947
4.29413
4.0678
3.85893
3.6656
3.48628
3.31951
3.16439
3.01962
2.8845
2.75781
2.6391
2.52732
2.42203
2.32254
2.22857
2.13945
2.05475
1.9739
1.89687
1.82325
1.75236
1.68399
1.6175
1.55276
1.48916
1.42657
1.36453
1.30287
1.24122
1.17957
1.11735
1.05445
0.990436
0.92513
0.857988
0.788805
0.717166
0.642485
0.564807
0.482585
0.398449
0.303861
0.220355
0.092448
0.0734995
25.5876
28.593
28.2971
28.7119
27.8825
25.8607
23.6629
21.6463
19.7676
18.0195
16.4302
15.0042
13.7275
12.5847
11.5617
10.6464
9.82619
9.08881
8.42556
7.82873
7.28997
6.80238
6.35989
5.95835
5.59307
5.26041
4.95658
4.67878
4.42332
4.18728
3.96855
3.76592
3.57821
3.40439
3.24306
3.09312
2.95311
2.82228
2.69954
2.58449
2.47619
2.37415
2.27772
2.18658
2.1001
2.01787
1.93937
1.86453
1.79297
1.72401
1.65746
1.59269
1.52954
1.46744
1.40626
1.34554
1.28513
1.22464
1.16409
1.10293
1.04104
0.977993
0.913616
0.847385
0.779083
0.708319
0.634518
0.557727
0.476435
0.393233
0.299724
0.217122
0.0907545
0.0722637
24.4606
26.8461
26.6641
27.4777
27.0012
25.1786
23.0946
21.1689
19.3634
17.6681
16.119
14.7239
13.47
12.3432
11.3306
10.4211
9.60475
8.87157
8.21316
7.62201
7.08987
6.60952
6.17487
5.78136
5.42398
5.0987
4.8021
4.53179
4.28492
4.05881
3.85065
3.65806
3.47883
3.3118
3.15621
3.01167
2.87706
2.75148
2.63369
2.52311
2.41884
2.3205
2.22753
2.13964
2.05623
1.97688
1.90109
1.82877
1.75954
1.69278
1.62828
1.56545
1.5041
1.44371
1.3841
1.32487
1.26584
1.20667
1.14735
1.08736
1.02659
0.964615
0.901257
0.836023
0.768685
0.698873
0.626025
0.550193
0.469903
0.387702
0.295347
0.213704
0.0889539
0.070981
21.8635
23.9866
23.973
25.1967
25.2723
23.8987
22.112
20.3881
18.726
17.1258
15.6416
14.2982
13.0894
12.003
11.0264
10.1471
9.35452
8.63901
7.99239
7.4084
6.88119
6.4055
5.97634
5.5893
5.23935
4.92194
4.63332
4.37063
4.13105
3.91204
3.7117
3.52843
3.3597
3.20311
3.05682
2.91985
2.79132
2.67102
2.55841
2.45299
2.35375
2.26007
2.1713
2.08717
2.00722
1.9311
1.8584
1.78899
1.72248
1.65826
1.59612
1.53549
1.47618
1.4177
1.35987
1.30232
1.24485
1.18716
1.12921
1.07053
1.01099
0.950199
0.887967
0.823828
0.757546
0.688772
0.616962
0.542168
0.462958
0.381832
0.290713
0.21009
0.0870279
0.0696671
16.5595
19.357
19.8748
21.3517
22.0113
21.3295
20.1042
18.8178
17.5163
16.2005
14.9254
13.7281
12.6147
11.5853
10.6422
9.78649
9.01579
8.32383
7.70268
7.14364
6.63863
6.18125
5.76592
5.38848
5.04566
4.73464
4.45261
4.19705
3.96491
3.75316
3.55969
3.38308
3.22152
3.07324
2.93672
2.81028
2.69183
2.58005
2.47422
2.37423
2.27987
2.19102
2.10712
2.02772
1.95217
1.87999
1.81087
1.74471
1.68122
1.61988
1.56045
1.50236
1.44541
1.38912
1.33332
1.27765
1.22193
1.16589
1.10949
1.05227
0.994109
0.93463
0.873644
0.810713
0.745591
0.677954
0.607276
0.533609
0.455568
0.375601
0.285804
0.20627
0.0849574
0.0683444
9.52395
13.3696
14.8432
16.4838
17.5853
17.5869
16.9437
16.124
15.239
14.2987
13.3518
12.4427
11.5841
10.7749
10.0135
9.29793
8.62526
7.99355
7.40404
6.85971
6.36259
5.91327
5.50942
5.14634
4.81918
4.52351
4.25501
4.01057
3.78774
3.58436
3.39865
3.22918
3.07408
2.93177
2.80123
2.6816
2.57154
2.46957
2.37404
2.28359
2.19712
2.1144
2.03543
1.96047
1.88936
1.82172
1.75706
1.69506
1.63529
1.5773
1.5209
1.46563
1.41131
1.35752
1.30404
1.25054
1.19683
1.14266
1.08798
1.0324
0.975779
0.917766
0.858167
0.796576
0.732737
0.666349
0.596908
0.524467
0.447694
0.368977
0.280596
0.202232
0.0827151
0.0670417
2.58641
6.92186
9.34231
11.2876
12.7696
13.4129
13.3888
13.0589
12.5806
11.9862
11.3221
10.6441
9.98529
9.35969
8.77449
8.23193
7.72905
7.25986
6.81875
6.40085
6.00227
5.62117
5.25788
4.9145
4.59438
4.30087
4.03529
3.79659
3.58276
3.39082
3.21726
3.05948
2.91513
2.7823
2.65972
2.54655
2.4419
2.34517
2.25585
2.1733
2.09617
2.02316
1.95315
1.88555
1.82017
1.75707
1.69653
1.63863
1.58302
1.52914
1.4766
1.42483
1.37363
1.32263
1.27172
1.22062
1.16917
1.11714
1.06444
1.01072
0.95584
0.899464
0.841407
0.781297
0.718878
0.653869
0.585789
0.514691
0.439296
0.361933
0.275071
0.197967
0.0802706
0.065799
-3.87013
0.402206
3.38632
5.73094
7.58377
8.78094
9.37113
9.58067
9.56302
9.37456
9.06034
8.67367
8.25344
7.82074
7.38932
6.97036
6.57205
6.19997
5.85713
5.54363
5.25643
4.9905
4.74005
4.50002
4.26689
4.03912
3.81687
3.6017
3.39666
3.20538
3.03051
2.87316
2.73313
2.6086
2.49686
2.39541
2.30188
2.21462
2.1327
2.05583
1.98372
1.91628
1.8533
1.79408
1.73754
1.68275
1.62918
1.57675
1.52545
1.47538
1.42656
1.37856
1.33107
1.28361
1.2359
1.18766
1.13877
1.08909
1.03858
0.986929
0.934017
0.87951
0.823207
0.764764
0.703923
0.640432
0.573844
0.504214
0.430321
0.354429
0.269198
0.193461
0.0775835
0.0646686
-9.97672
-5.96381
-2.78259
-0.113843
2.07991
3.72754
4.85376
5.58554
6.03733
6.27373
6.34142
6.28889
6.15739
5.97461
5.7595
5.52655
5.28639
5.04594
4.81003
4.58223
4.36565
4.16304
3.9764
3.80623
3.65108
3.5079
3.37242
3.24034
3.10858
2.97576
2.84194
2.70841
2.57783
2.45349
2.33835
2.23452
2.14266
2.06175
1.98953
1.9237
1.86211
1.8034
1.74718
1.69342
1.64221
1.59365
1.54741
1.50284
1.45906
1.41545
1.37179
1.3279
1.28393
1.23983
1.19548
1.15057
1.10486
1.05812
1.01022
0.960939
0.910185
0.857706
0.80333
0.746748
0.687691
0.625915
0.560993
0.492983
0.420731
0.346434
0.262954
0.188703
0.0746036
0.0637188
-15.961
-12.2056
-8.99283
-6.13051
-3.66754
-1.66107
-0.0908841
1.11351
2.02284
2.69033
3.15851
3.46906
3.6602
3.76195
3.79693
3.78299
3.73417
3.66124
3.57205
3.47264
3.36746
3.25978
3.15198
3.04599
2.94357
2.84669
2.75703
2.67542
2.60129
2.53283
2.46706
2.40061
2.33092
2.25674
2.17805
2.09599
2.01289
1.93169
1.85521
1.78588
1.72478
1.67121
1.62352
1.57969
1.53797
1.49737
1.45764
1.41881
1.38087
1.34368
1.3068
1.26953
1.23134
1.19197
1.1514
1.1097
1.06699
1.02326
0.978356
0.931989
0.883954
0.833942
0.781788
0.727248
0.670109
0.610184
0.547087
0.480872
0.410437
0.337901
0.256311
0.183689
0.0712698
0.0630416
-21.6406
-18.1166
-14.9516
-12.0266
-9.40758
-7.15033
-5.24541
-3.65597
-2.34513
-1.27941
-0.426328
0.246975
0.772173
1.177
1.48456
1.71426
1.88244
2.00237
2.08472
2.13785
2.16831
2.18114
2.18032
2.16898
2.14965
2.12445
2.09515
2.06327
2.0303
1.99777
1.96714
1.93928
1.9141
1.89043
1.86612
1.83856
1.80571
1.76651
1.72095
1.67018
1.61632
1.56199
1.50995
1.46263
1.4211
1.38489
1.3527
1.32268
1.2932
1.26339
1.23287
1.20154
1.16928
1.13589
1.1011
1.0645
1.02601
0.985691
0.943642
0.899925
0.854546
0.807239
0.757761
0.70578
0.651
0.593237
0.532165
0.467885
0.399397
0.328764
0.249212
0.178393
0.0674977
0.0627664
-26.6873
-23.4328
-20.4077
-17.5447
-14.8989
-12.5176
-10.4043
-8.54441
-6.92376
-5.52682
-4.33447
-3.32495
-2.47578
-1.76541
-1.17394
-0.683405
-0.277844
0.0566991
0.332098
0.558379
0.743937
0.895845
1.01991
1.12092
1.20273
1.26844
1.32059
1.36133
1.39242
1.41549
1.432
1.44332
1.45081
1.45578
1.45943
1.46256
1.46519
1.46648
1.4648
1.45828
1.44539
1.42545
1.39874
1.36655
1.33079
1.2938
1.25807
1.22541
1.1964
1.17054
1.14643
1.12244
1.09734
1.07045
1.04159
1.0107
0.977764
0.942708
0.905387
0.86563
0.823444
0.778782
0.73169
0.682081
0.629735
0.574438
0.515798
0.453834
0.387586
0.319059
0.24168
0.172822
0.0631741
0.0630359
-30.7707
-27.8454
-25.0498
-22.3564
-19.805
-17.4305
-15.2437
-13.2448
-11.4334
-9.80673
-8.35795
-7.07659
-5.95011
-4.96492
-4.10707
-3.36271
-2.71857
-2.16223
-1.68234
-1.26872
-0.91226
-0.605048
-0.340205
-0.111831
0.0851218
0.254983
0.40151
0.527858
0.636697
0.730242
0.810367
0.878694
0.936661
0.985587
1.0267
1.06117
1.09016
1.11475
1.13588
1.15422
1.16992
1.18245
1.19082
1.19385
1.19063
1.1809
1.16518
1.14451
1.12037
1.09456
1.06869
1.0439
1.02035
0.997363
0.973823
0.948694
0.92133
0.891491
0.859216
0.824424
0.787037
0.746816
0.703534
0.657058
0.607316
0.55435
0.498013
0.43841
0.37463
0.308532
0.233624
0.167005
0.0582055
0.0641061
-33.4522
-30.8965
-28.4016
-25.9643
-23.6106
-21.3638
-19.2367
-17.237
-15.3713
-13.6441
-12.0568
-10.6078
-9.29288
-8.10622
-7.0404
-6.08714
-5.23751
-4.48248
-3.81306
-3.22055
-2.6968
-2.23424
-1.82595
-1.46571
-1.1479
-0.867491
-0.620072
-0.401743
-0.209126
-0.0392518
0.110453
0.242239
0.358051
0.459567
0.548236
0.625383
0.692253
0.750045
0.799887
0.842864
0.880026
0.912256
0.940205
0.964264
0.984428
1.0002
1.01086
1.01562
1.01397
1.00608
0.992687
0.974989
0.954372
0.932114
0.909191
0.885978
0.862155
0.836975
0.809665
0.779588
0.746502
0.710349
0.67106
0.628527
0.582546
0.532934
0.479493
0.422416
0.361035
0.2973
0.224912
0.160773
0.0522851
0.0663732
-34.7566
-32.5737
-30.407
-28.2651
-26.1639
-24.1186
-22.1411
-20.2416
-18.4294
-16.7123
-15.0961
-13.5844
-12.1789
-10.8794
-9.68421
-8.59005
-7.59267
-6.6869
-5.86699
-5.12685
-4.46028
-3.86109
-3.32334
-2.84132
-2.40964
-2.02337
-1.67792
-1.36916
-1.09332
-0.847007
-0.627184
-0.431141
-0.256454
-0.100969
0.0372429
0.159923
0.268642
0.364796
0.449598
0.524127
0.589365
0.646186
0.695344
0.737551
0.773495
0.803757
0.828832
0.849063
0.86455
0.875192
0.880725
0.880879
0.875566
0.865029
0.849912
0.831121
0.809588
0.786053
0.7609
0.733944
0.704687
0.67254
0.637032
0.597974
0.555326
0.509062
0.459008
0.405221
0.346921
0.285921