/*--------------------------------*- C++ -*----------------------------------*\
| =========                 |                                                 |
| \\      /  F ield         | OpenFOAM: The Open Source CFD Toolbox           |
|  \\    /   O peration     | Version:  2312                                  |
|   \\  /    A nd           | Website:  www.openfoam.com                      |
|    \\/     M anipulation  |                                                 |
\*---------------------------------------------------------------------------*/
FoamFile
{
    version     2.0;
    format      ascii;
    arch        "LSB;label=32;scalar=64";
    class       surfaceScalarField;
    location    "250";
    object      phi;
}
// * * * * * * * * * * * * * * * * * * * * * * * * * * * * * * * * * * * * * //

dimensions      [0 3 -1 0 0 0 0];

oriented        oriented;

internalField   nonuniform List<scalar> 
21876
(
0.0445587
-0.00916706
-0.0353916
0.0414558
0.00310288
0.0310452
0.0104106
0.0190204
0.0120247
0.00897803
0.0100415
0.00248618
0.00649041
-0.000799889
0.00328536
-0.00152907
0.000728037
-0.000529427
-0.00100097
0.00132566
-0.00185663
0.00366825
-0.00234302
0.00609878
-0.00242992
0.00827605
-0.00217852
0.010057
-0.00177879
0.0114322
-0.00137515
0.0124539
-0.001021
0.0131805
-0.000726485
0.0136688
-0.000488059
0.0139601
-0.000290937
0.0140715
-0.00011144
0.0139791
9.34361e-05
0.0137717
0.000207214
0.0135671
0.000205173
0.0133462
0.000220973
0.0130775
0.000268918
0.0127566
0.00032113
0.0123784
0.000378342
0.0119405
0.000437977
0.0114377
0.000502961
0.0108647
0.000573131
0.0102152
0.000649694
0.00948434
0.000731003
0.00867116
0.00081331
0.0077731
0.000898465
0.00680397
0.00096897
0.00577475
0.00102975
0.00468922
0.00108502
0.00355651
0.00113282
0.00235422
0.00120149
0.00092274
0.00143016
-0.00355865
0.00447867
0.0468462
-0.0191955
-0.0368178
0.0498627
8.63561e-05
0.0515992
0.00867396
0.04984
0.0137838
0.0440857
0.0157956
0.0360304
0.0145452
0.0282933
0.0110216
0.0224471
0.00657296
0.018893
0.00255133
0.0176323
-0.000598301
0.0178934
-0.00260639
0.0187591
-0.00329608
0.0196788
-0.00309816
0.0204594
-0.00255694
0.0210566
-0.00197022
0.0214737
-0.00143582
0.0217286
-0.000979538
0.0218463
-0.000604261
0.021838
-0.000280987
0.0217025
2.51236e-05
0.0214145
0.000383059
0.0210371
0.00058543
0.0206493
0.000593792
0.020255
0.000615766
0.0198364
0.000687937
0.0193833
0.000774459
0.0188832
0.000878739
0.0183265
0.000994912
0.0177029
0.0011269
0.0170025
0.00127381
0.0162149
0.00143766
0.0153304
0.00161595
0.0143415
0.00180279
0.0132337
0.00200701
0.0120024
0.00220127
0.0106548
0.00237848
0.00922306
0.00251679
0.00769858
0.00265709
0.00620827
0.00269008
0.00474339
0.00289292
-0.00298341
0.00416507
0.0518376
-0.0315263
-0.0395068
0.0588766
-0.00695276
0.0629903
0.00456008
0.0660321
0.0107418
0.0671395
0.0146878
0.0655542
0.0161302
0.0617979
0.0147778
0.0570461
0.0113248
0.0524528
0.00714467
0.0485099
0.00334478
0.0452624
0.000641725
0.0426812
-0.000714741
0.0406236
-0.00104077
0.0389368
-0.000870045
0.037549
-0.000583079
0.0364284
-0.000315564
0.0355323
-8.39616e-05
0.0347927
0.000134994
0.0341098
0.000401593
0.033381
0.000753526
0.0325186
0.00124546
0.0316317
0.00147198
0.0307999
0.00142557
0.0300175
0.00139809
0.0292553
0.0014502
0.0284926
0.00153722
0.0277048
0.00166659
0.0268723
0.00182738
0.0259781
0.00202118
0.0250075
0.00224438
0.023947
0.00249819
0.022784
0.00277885
0.0215087
0.00307796
0.0201016
0.00341404
0.0185596
0.00374267
0.016886
0.00405188
0.015103
0.00429952
0.0131848
0.0045753
0.0112773
0.00459788
0.0093935
0.00477678
-6.04251e-05
0.00647015
0.0556325
-0.0443192
-0.0428397
0.065488
-0.0168083
0.0708369
-0.000789151
0.0744556
0.00712275
0.0774861
0.011657
0.0796661
0.0139499
0.0803639
0.0140798
0.0794834
0.0122049
0.077581
0.00904657
0.0753293
0.00559594
0.0731836
0.00278675
0.0712867
0.00118152
0.0695376
0.000707941
0.0677297
0.000938104
0.0657133
0.0014339
0.0634311
0.0019675
0.0608998
0.00244814
0.0581989
0.0028367
0.055444
0.00315733
0.0527494
0.00344874
0.0501721
0.00382345
0.0479876
0.00365684
0.0461785
0.00323512
0.0446374
0.00293972
0.0432488
0.00283911
0.0419366
0.0028496
0.0406463
0.0029571
0.0393426
0.00313132
0.0379998
0.00336422
0.0365976
0.00364677
0.0351166
0.00397948
0.0335382
0.00435757
0.0318462
0.00477028
0.0300129
0.00524753
0.0280339
0.00572189
0.0259097
0.00617623
0.0236579
0.00655127
0.0212388
0.00699426
0.0187797
0.00705652
0.0163094
0.00724628
0.00383752
0.0124102
0.0599818
-0.0575175
-0.0467836
0.0718172
-0.0286439
0.0799334
-0.00890562
0.0851979
0.00185789
0.0888588
0.00799582
0.0914079
0.0114005
0.0929014
0.012586
0.0932747
0.0118314
0.0926413
0.00967986
0.091323
0.00691412
0.0897051
0.00440482
0.0881136
0.00277302
0.0867445
0.00207705
0.0856003
0.00208228
0.0845996
0.00243416
0.0836398
0.00292702
0.0825995
0.00348813
0.0813512
0.00408474
0.0797722
0.00473595
0.0777576
0.0054631
0.0752407
0.00634015
0.0725482
0.0063491
0.0698449
0.00593836
0.0672216
0.00556293
0.0647139
0.0053469
0.0623423
0.00522127
0.060098
0.00520142
0.0579526
0.00527672
0.0558653
0.00545152
0.053791
0.00572105
0.0516843
0.00608621
0.0495043
0.00653759
0.0472181
0.00705635
0.0447828
0.0076827
0.0421901
0.00831428
0.0394387
0.00892737
0.0365437
0.00944621
0.0334522
0.0100857
0.030266
0.0102429
0.0269987
0.0105137
0.00828743
0.0225487
0.0652142
-0.0714417
-0.0512903
0.0785644
-0.0419943
0.0895211
-0.0198626
0.0974485
-0.00606977
0.102935
0.0025091
0.106507
0.00782841
0.108454
0.0106391
0.108999
0.0112858
0.108411
0.0102679
0.107056
0.00826916
0.105326
0.00613517
0.103547
0.00455172
0.101953
0.00367111
0.100599
0.00343594
0.0994504
0.00358236
0.0984691
0.00390837
0.0976253
0.00433226
0.0968893
0.00482102
0.0962214
0.00540424
0.0955636
0.00612123
0.0948033
0.00710083
0.093908
0.00724463
0.0928493
0.00699726
0.0915887
0.00682377
0.0900842
0.00685152
0.0883262
0.00697941
0.0863212
0.00720658
0.0840855
0.00751256
0.0816406
0.00789661
0.0790096
0.00835211
0.0762117
0.0088843
0.0732595
0.00948995
0.0701592
0.0101567
0.0668864
0.0109556
0.0634475
0.0117532
0.0598448
0.01253
0.0560894
0.0132017
0.0521048
0.0140702
0.0479811
0.0143665
0.0436944
0.0148002
0.0133424
0.0386393
0.0716168
-0.0866682
-0.0563902
0.0863783
-0.056756
0.0994303
-0.0329146
0.109944
-0.0165839
0.117786
-0.00533299
0.123352
0.00226208
0.12689
0.00710166
0.128571
0.00960483
0.128689
0.0101493
0.127679
0.00927932
0.126015
0.00779892
0.124089
0.006478
0.122203
0.00555735
0.120488
0.00515025
0.118951
0.0051193
0.117562
0.00529752
0.116295
0.00559923
0.115133
0.00598302
0.114066
0.00647053
0.113102
0.00708558
0.11224
0.0079624
0.111535
0.00794992
0.110969
0.00756292
0.110509
0.00728369
0.110091
0.00727005
0.109651
0.00741947
0.109125
0.00773268
0.108442
0.00819481
0.107531
0.00880794
0.10632
0.00956334
0.104742
0.0104617
0.102742
0.0114908
0.100273
0.0126249
0.0972869
0.0139421
0.093785
0.0152549
0.0897932
0.0165217
0.0853661
0.0176287
0.0804596
0.0189767
0.0752446
0.0195816
0.0696873
0.0203575
0.0191921
0.0638376
0.0793237
-0.103806
-0.0621862
0.0957735
-0.0732057
0.110736
-0.0478775
0.123626
-0.0294733
0.133999
-0.0157062
0.141866
-0.00560508
0.147432
0.00153506
0.150867
0.00617051
0.15238
0.0086363
0.152348
0.00931132
0.151253
0.00889383
0.149548
0.00818286
0.147627
0.00747825
0.145732
0.00704559
0.143949
0.006902
0.142285
0.00696171
0.140722
0.00716124
0.139243
0.00746287
0.137824
0.00788868
0.136456
0.00845458
0.13513
0.00928826
0.133952
0.00912733
0.132928
0.00858727
0.132065
0.00814667
0.131344
0.00799116
0.130746
0.00801818
0.130256
0.0082222
0.12986
0.00859137
0.129532
0.00913542
0.129239
0.00985629
0.12893
0.010771
0.128532
0.0118895
0.127947
0.0132098
0.127041
0.0148479
0.125677
0.0166191
0.123711
0.0184873
0.121022
0.0203175
0.117419
0.0225802
0.112949
0.0240516
0.107501
0.0258053
0.0252548
0.101438
0.0884607
-0.123507
-0.06876
0.107075
-0.0918199
0.124053
-0.0648554
0.1391
-0.0445204
0.151848
-0.0284541
0.162123
-0.0158798
0.16995
-0.00629196
0.175455
0.000665852
0.178805
0.00528658
0.180264
0.00785216
0.180256
0.00890195
0.179239
0.0091997
0.177658
0.00906005
0.175849
0.0088543
0.174004
0.0087467
0.172202
0.00876396
0.170466
0.00889708
0.168798
0.00913064
0.167188
0.00949894
0.165621
0.0100214
0.164083
0.0108259
0.162679
0.0105321
0.161394
0.00987135
0.16024
0.00930168
0.159198
0.00903242
0.15825
0.00896639
0.157384
0.00908846
0.156595
0.00938006
0.155885
0.00984573
0.15526
0.0104811
0.154734
0.0112977
0.154319
0.0123042
0.154026
0.0135033
0.153837
0.0150367
0.153719
0.0167371
0.153584
0.0186217
0.153294
0.0206081
0.152594
0.0232802
0.151254
0.0253917
0.148999
0.0280599
0.0289079
0.145346
0.0992041
-0.146494
-0.0762166
0.120597
-0.113213
0.139982
-0.0842402
0.157284
-0.061822
0.172328
-0.0434986
0.184978
-0.0285295
0.195179
-0.0164931
0.202958
-0.00711198
0.208421
-0.000176601
0.211764
0.00450892
0.213299
0.00736762
0.213431
0.00906758
0.212601
0.00989093
0.211202
0.0102525
0.209524
0.0104248
0.207736
0.0105519
0.205927
0.0107061
0.20414
0.0109178
0.202391
0.0112477
0.200682
0.01173
0.199009
0.0124985
0.197478
0.0120631
0.196065
0.0112844
0.194776
0.0105912
0.1936
0.0102086
0.192514
0.0100516
0.191501
0.0101014
0.190547
0.0103345
0.189641
0.010752
0.188777
0.0113448
0.187958
0.0121171
0.187193
0.0130686
0.186506
0.0141908
0.185916
0.0156267
0.185474
0.0171789
0.185226
0.0188696
0.185198
0.0206363
0.185357
0.0231208
0.185569
0.0251795
0.185794
0.0278349
0.0297208
0.184982
0.111779
-0.173604
-0.0846691
0.136689
-0.138123
0.159064
-0.106616
0.178967
-0.0817242
0.196413
-0.0609446
0.211406
-0.0435229
0.223949
-0.0290357
0.234062
-0.0172256
0.241796
-0.0079104
0.247276
-0.000970494
0.250729
0.00391429
0.25247
0.00732714
0.252873
0.00948788
0.252332
0.0107932
0.251189
0.011568
0.249695
0.0120463
0.248013
0.0123876
0.246245
0.0126853
0.244451
0.0130421
0.242661
0.0135198
0.240892
0.0142676
0.239256
0.0136992
0.237731
0.0128097
0.236324
0.0119978
0.235035
0.0114972
0.233849
0.0112375
0.23275
0.0112008
0.231724
0.011361
0.230758
0.0117172
0.229845
0.012258
0.228978
0.0129844
0.228154
0.0138919
0.227378
0.0149673
0.226642
0.0163625
0.225973
0.017848
0.225402
0.0194402
0.224963
0.0210752
0.22468
0.0234043
0.224557
0.0253028
0.224746
0.0276455
0.0296877
0.224779
0.126484
-0.205825
-0.0942632
0.155789
-0.167429
0.181905
-0.132731
0.204979
-0.104798
0.225179
-0.0811452
0.242671
-0.0610152
0.257585
-0.0439496
0.270019
-0.0296594
0.280056
-0.017948
0.287781
-0.00869555
0.293359
-0.0016635
0.297038
0.00364839
0.299102
0.00742401
0.299886
0.0100093
0.299728
0.0117261
0.29892
0.0128541
0.297689
0.013619
0.296196
0.0141779
0.294554
0.0146843
0.292835
0.0152387
0.291087
0.0160159
0.289425
0.015361
0.287844
0.0143901
0.286361
0.0134816
0.284984
0.0128736
0.283711
0.0125107
0.282532
0.0123802
0.281437
0.0124559
0.280419
0.0127352
0.279472
0.0132049
0.278593
0.0138636
0.277781
0.0147039
0.277038
0.0157095
0.276353
0.0170473
0.275742
0.0184596
0.275215
0.0199673
0.274779
0.0215107
0.274409
0.0237748
0.274134
0.0255776
0.274021
0.0277587
0.0296569
0.274052
0.14369
-0.244335
-0.105179
0.178443
-0.202182
0.209213
-0.163501
0.236215
-0.131801
0.259736
-0.104667
0.28009
-0.081369
0.297556
-0.0614156
0.312361
-0.0444644
0.324681
-0.0302689
0.334653
-0.0186674
0.34242
-0.00943053
0.348191
-0.00212204
0.352188
0.00342632
0.354674
0.00752312
0.355937
0.0104637
0.35626
0.012531
0.355895
0.0139841
0.355046
0.0150268
0.353872
0.0158584
0.35249
0.0166207
0.350985
0.0175202
0.349468
0.0168779
0.347969
0.0158895
0.34652
0.0149305
0.345148
0.0142455
0.343863
0.0137954
0.342667
0.0135763
0.341558
0.0135652
0.340533
0.0137602
0.339591
0.0141472
0.338731
0.0147231
0.337957
0.0154781
0.337273
0.0163933
0.336669
0.0176515
0.336165
0.0189642
0.335773
0.0203586
0.335507
0.021777
0.335325
0.023957
0.335273
0.0256295
0.335349
0.0276831
0.0294242
0.335581
0.163865
-0.290557
-0.117643
0.20533
-0.243647
0.241861
-0.200032
0.273735
-0.163675
0.301346
-0.132278
0.32514
-0.105163
0.345545
-0.081821
0.362936
-0.0618556
0.377621
-0.0449533
0.389833
-0.0308798
0.399776
-0.0193734
0.407666
-0.0100118
0.413699
-0.00260676
0.418094
0.00312736
0.421087
0.00747059
0.422922
0.0106968
0.423835
0.0130704
0.424043
0.014819
0.423729
0.0161725
0.423043
0.0173069
0.422105
0.0184576
0.420996
0.0179875
0.419797
0.0170879
0.418571
0.0161566
0.417366
0.0154505
0.416212
0.0149497
0.415125
0.0146632
0.414116
0.014575
0.413189
0.0146867
0.412351
0.0149857
0.411605
0.015469
0.410957
0.0161257
0.410416
0.016935
0.409969
0.0180981
0.409641
0.0192927
0.409446
0.0205528
0.409403
0.0218201
0.40947
0.0238902
0.409707
0.0253925
0.410107
0.027283
0.0288378
0.410694
0.187593
-0.346214
-0.131937
0.237299
-0.293354
0.280929
-0.243662
0.318826
-0.201572
0.351493
-0.164945
0.379506
-0.133176
0.40344
-0.105755
0.423822
-0.0822372
0.441106
-0.0622375
0.455659
-0.0454329
0.467785
-0.0314996
0.477772
-0.0199985
0.485841
-0.0106755
0.492203
-0.00323513
0.497072
0.00260179
0.500658
0.00711045
0.503169
0.0105592
0.504805
0.013183
0.50575
0.0152281
0.506164
0.0168928
0.506189
0.0184327
0.505832
0.0183438
0.505241
0.0176793
0.504509
0.0168889
0.503712
0.0162468
0.502905
0.0157572
0.502123
0.0154449
0.501393
0.0153057
0.500731
0.015348
0.500154
0.0155636
0.499671
0.0159517
0.499294
0.0165022
0.499035
0.0171942
0.498884
0.0182493
0.498866
0.0193108
0.498998
0.0204208
0.499299
0.0215196
0.499725
0.0234641
0.500341
0.0247763
0.50114
0.0264839
0.0278338
0.502144
0.215592
-0.413397
-0.148409
0.275398
-0.353159
0.327752
-0.296015
0.373074
-0.246895
0.411988
-0.203859
0.44521
-0.166399
0.473468
-0.134014
0.497447
-0.106216
0.517759
-0.0825492
0.534918
-0.0625925
0.549359
-0.0459405
0.561473
-0.0321126
0.571561
-0.0207634
0.579875
-0.0115494
0.586641
-0.00416364
0.592066
0.00168564
0.596345
0.00628023
0.599658
0.00987006
0.602175
0.0127104
0.604054
0.0150141
0.605437
0.0170495
0.606214
0.0175675
0.606588
0.0173048
0.606686
0.0167912
0.606611
0.0163217
0.606441
0.0159274
0.606234
0.0156522
0.606033
0.0155066
0.605872
0.0155093
0.605776
0.0156594
0.605767
0.0159609
0.605862
0.0164069
0.606078
0.0169781
0.60641
0.0179181
0.606883
0.0188374
0.607517
0.0197866
0.608331
0.020706
0.60928
0.0225153
0.610428
0.0236284
0.611764
0.0251473
0.02629
0.613308
0.248732
-0.494655
-0.167474
0.320901
-0.425329
0.383958
-0.359072
0.438415
-0.301351
0.485032
-0.250476
0.524689
-0.206056
0.558283
-0.167608
0.586672
-0.134605
0.610637
-0.106514
0.630855
-0.0828105
0.647908
-0.0629931
0.662314
-0.0465188
0.674483
-0.0329328
0.684753
-0.0218193
0.693403
-0.0128131
0.700669
-0.00558099
0.706761
0.000188236
0.711864
0.00476766
0.71614
0.00843378
0.71974
0.0114143
0.722802
0.013988
0.725052
0.0153169
0.726746
0.0156113
0.728027
0.0155102
0.72902
0.0153283
0.729824
0.0151238
0.730515
0.0149608
0.731155
0.0148667
0.731792
0.0148729
0.732463
0.0149882
0.7332
0.0152237
0.734029
0.0155781
0.734972
0.0160355
0.736028
0.0168623
0.737226
0.0176394
0.738586
0.0184268
0.740126
0.0191654
0.741805
0.0208369
0.743681
0.0217516
0.745745
0.023084
0.0240254
0.748009
0.261471
-0.583834
-0.172292
0.340547
-0.504405
0.409548
-0.428073
0.469038
-0.360841
0.519858
-0.301296
0.562976
-0.249174
0.599387
-0.204018
0.630044
-0.165263
0.655826
-0.132297
0.67751
-0.104494
0.695769
-0.0812521
0.711204
-0.0619538
0.724302
-0.0460314
0.735468
-0.0329853
0.745034
-0.0223787
0.753272
-0.0138192
0.76041
-0.00694973
0.766641
-0.00146331
0.772131
0.00294393
0.777023
0.00652285
0.781443
0.00956735
0.784986
0.0117745
0.787914
0.0126828
0.790369
0.0130557
0.792473
0.013224
0.794328
0.0132684
0.796018
0.0132715
0.797608
0.0132764
0.799154
0.013327
0.8007
0.0134424
0.802281
0.013642
0.803929
0.0139306
0.805667
0.0142973
0.807501
0.0150287
0.809457
0.015683
0.811555
0.0163291
0.813811
0.016909
0.816191
0.0184572
0.818744
0.0191986
0.82146
0.0203685
0.0211366
0.824348
0.271081
-0.679789
-0.175126
0.356068
-0.589392
0.43016
-0.502164
0.493966
-0.424648
0.548395
-0.355724
0.594489
-0.295268
0.633321
-0.24285
0.665924
-0.197865
0.693253
-0.159626
0.716162
-0.127403
0.735398
-0.100488
0.751625
-0.0781809
0.765394
-0.0598006
0.777166
-0.0447575
0.787323
-0.0325353
0.796178
-0.0226741
0.803989
-0.0147605
0.810966
-0.00844122
0.817289
-0.00337872
0.823105
0.000706718
0.828544
0.00412861
0.833101
0.00721759
0.83704
0.00874387
0.840489
0.00960641
0.843565
0.0101482
0.846364
0.010469
0.848968
0.0106671
0.851445
0.0107996
0.85385
0.0109221
0.856229
0.0110637
0.858619
0.0112518
0.861052
0.011498
0.863552
0.0117966
0.86613
0.0124512
0.868809
0.013004
0.871606
0.0135315
0.874538
0.0139775
0.877576
0.0154188
0.880762
0.0160134
0.884085
0.0170452
0.0176669
0.887555
0.282725
-0.783146
-0.179369
0.374194
-0.680861
0.453886
-0.581856
0.522463
-0.493225
0.580904
-0.414165
0.630332
-0.344697
0.671903
-0.284421
0.706731
-0.232694
0.735851
-0.188746
0.760191
-0.151743
0.780569
-0.120866
0.79771
-0.0953222
0.812225
-0.0743152
0.824627
-0.0571601
0.835347
-0.0432555
0.844741
-0.0320675
0.8531
-0.02312
0.860666
-0.0160072
0.867636
-0.0103486
0.874174
-0.00583084
0.880418
-0.00211562
0.885795
0.00184034
0.89057
0.00396873
0.894862
0.00531469
0.898778
0.00623204
0.90241
0.00683676
0.905836
0.00724106
0.909121
0.00751461
0.912319
0.00772386
0.915475
0.00790726
0.918627
0.00810004
0.921805
0.00832034
0.925033
0.00856807
0.928324
0.00916035
0.931699
0.00962912
0.935173
0.0100573
0.93876
0.0103908
0.94244
0.0117385
0.946244
0.0122093
0.950166
0.0131235
0.0136215
0.954212
0.296267
-0.894567
-0.184845
0.394816
-0.77941
0.480641
-0.667681
0.554457
-0.56704
0.61732
-0.477028
0.67044
-0.397817
0.715062
-0.329043
0.752387
-0.270019
0.783533
-0.219892
0.809504
-0.177714
0.831191
-0.142552
0.849379
-0.113511
0.864738
-0.0896737
0.877833
-0.0702558
0.889143
-0.0545652
0.899064
-0.0419885
0.907925
-0.0319815
0.915999
-0.0240805
0.923508
-0.0178576
0.930637
-0.0129599
0.93754
-0.00901895
0.943593
-0.00421289
0.949065
-0.00150331
0.954069
0.000311123
0.958706
0.00159484
0.963064
0.00247922
0.967215
0.00308931
0.971223
0.00350661
0.975139
0.0038076
0.979007
0.00403969
0.982861
0.00424557
0.986732
0.00444987
0.990642
0.00465788
0.994605
0.00519741
0.998639
0.00559478
1.00276
0.00593824
1.00697
0.00617594
1.01127
0.00743978
1.01568
0.00780504
1.02018
0.00861771
0.00901038
1.02479
0.31165
-1.01477
-0.191451
0.41792
-0.88568
0.510442
-0.760202
0.589989
-0.646588
0.657703
-0.544742
0.714887
-0.455001
0.762881
-0.377036
0.80298
-0.310118
0.836389
-0.253301
0.864194
-0.20552
0.88736
-0.165718
0.906737
-0.132888
0.923052
-0.105989
0.936926
-0.084129
0.948881
-0.0665201
0.959356
-0.0524641
0.968718
-0.0413437
0.97727
-0.0326325
0.985263
-0.0258509
0.992906
-0.0206025
1.00037
-0.0164849
1.007
-0.0108398
1.01306
-0.00756692
1.01867
-0.00529962
1.02393
-0.00366178
1.02892
-0.00250692
1.0337
-0.00169728
1.03835
-0.0011399
1.04291
-0.000748513
1.04741
-0.000467044
1.0519
-0.000245486
1.05641
-5.29172e-05
1.06094
0.000121316
1.06553
0.000613036
1.07017
0.000946957
1.0749
0.00121561
1.0797
0.0013695
1.08459
0.00255542
1.08956
0.00282878
1.09463
0.00355178
0.00385295
1.09979
0.328878
-1.14452
-0.199129
0.443557
-1.00036
0.543381
-0.860026
0.629187
-0.732394
0.702208
-0.617762
0.763847
-0.516641
0.815549
-0.428738
0.85871
-0.353278
0.894627
-0.289219
0.924476
-0.235368
0.949296
-0.190539
0.970008
-0.153599
0.987398
-0.12338
1.00214
-0.0988735
1.01481
-0.0791897
1.02589
-0.06354
1.03577
-0.051229
1.0448
-0.0416633
1.05326
-0.0343069
1.06137
-0.0287164
1.06934
-0.0244521
1.07647
-0.0179694
1.08305
-0.0141447
1.08919
-0.0114364
1.09498
-0.00945557
1.10051
-0.00804008
1.10585
-0.00703923
1.11106
-0.00634833
1.11619
-0.00587134
1.12126
-0.00554352
1.12632
-0.00530761
1.1314
-0.00512647
1.1365
-0.0049841
1.14165
-0.00453885
1.14687
-0.00426441
1.15215
-0.00406467
1.1575
-0.00398677
1.16293
-0.00287602
1.16845
-0.00268503
1.17404
-0.0020437
-0.00182392
1.17972
0.347993
-1.28465
-0.207855
0.471827
-1.12419
0.579606
-0.967805
0.67224
-0.825028
0.751058
-0.69658
0.817573
-0.583156
0.873341
-0.484507
0.919868
-0.399805
0.958552
-0.327903
0.990661
-0.267477
1.01732
-0.217197
1.03952
-0.175798
1.05811
-0.141972
1.07383
-0.11459
1.08729
-0.0926527
1.09902
-0.0752739
1.10947
-0.0616749
1.119
-0.0511905
1.12791
-0.0432244
1.13648
-0.0372826
1.14491
-0.0328843
1.1525
-0.0255542
1.15953
-0.02118
1.16613
-0.0180366
1.1724
-0.0157201
1.17841
-0.0140519
1.18424
-0.0128675
1.18994
-0.0120501
1.19556
-0.0114936
1.20114
-0.0111242
1.20671
-0.0108776
1.2123
-0.0107101
1.21791
-0.0106005
1.22358
-0.0102031
1.2293
-0.00998713
1.23509
-0.00985367
1.24095
-0.00984726
1.24688
-0.00881162
1.2529
-0.00869694
1.25899
-0.00813246
-0.00798718
1.26515
0.369068
-1.43609
-0.217631
0.502868
-1.25799
0.619315
-1.08425
0.719392
-0.925106
0.804537
-0.781724
0.876381
-0.655
0.936601
-0.544728
0.98682
-0.450024
1.02855
-0.36963
1.06315
-0.302078
1.09184
-0.245887
1.11568
-0.199644
1.13561
-0.161898
1.15241
-0.131387
1.16675
-0.106994
1.1792
-0.0877298
1.19026
-0.0727263
1.20031
-0.0612412
1.2097
-0.0526135
1.21871
-0.0462944
1.22758
-0.0417593
1.23559
-0.033561
1.24304
-0.0286304
1.25005
-0.0250505
1.25673
-0.0224005
1.26317
-0.0204838
1.26942
-0.0191213
1.27555
-0.0181833
1.28161
-0.0175529
1.28763
-0.0171474
1.29365
-0.0168946
1.29969
-0.0167446
1.30576
-0.0166706
1.31188
-0.0163241
1.31806
-0.016168
1.3243
-0.0161007
1.33062
-0.016164
1.33702
-0.0152055
1.34348
-0.0151639
1.35002
-0.0146741
-0.0145991
1.35664
0.392206
-1.59983
-0.228472
0.536855
-1.40264
0.662743
-1.21014
0.770935
-1.0333
0.862983
-0.873771
0.940648
-0.732665
1.00574
-0.609818
1.06
-0.504288
1.10507
-0.414696
1.14241
-0.33942
1.17334
-0.276814
1.199
-0.22531
1.2204
-0.183298
1.23839
-0.149377
1.2537
-0.122303
1.26695
-0.100977
1.27866
-0.0844332
1.28926
-0.0718478
1.29914
-0.0624901
1.3086
-0.0557525
1.3179
-0.0510629
1.32631
-0.041965
1.33414
-0.0364619
1.34152
-0.0324366
1.34857
-0.0294493
1.35537
-0.0272841
1.362
-0.0257458
1.3685
-0.0246908
1.37494
-0.0239911
1.38135
-0.0235542
1.38775
-0.0232999
1.39418
-0.0231716
1.40065
-0.0231368
1.40717
-0.0228456
1.41375
-0.022752
1.42041
-0.0227525
1.42713
-0.0228859
1.43393
-0.022008
1.4408
-0.0220385
1.44775
-0.0216233
-0.0216165
1.45477
0.41753
-1.77695
-0.24041
0.573996
-1.55911
0.71017
-1.34631
0.827209
-1.15034
0.92679
-0.973352
1.01081
-0.816688
1.08123
-0.680234
1.13992
-0.562982
1.18865
-0.463423
1.229
-0.379771
1.26239
-0.310202
1.29006
-0.252978
1.31308
-0.206322
1.33238
-0.168681
1.34876
-0.138676
1.36287
-0.115087
1.37528
-0.0968485
1.38648
-0.0830453
1.39686
-0.0728726
1.40677
-0.0656597
1.41649
-0.0607833
1.42527
-0.0507445
1.43345
-0.0446436
1.44117
-0.0401565
1.44854
-0.0368223
1.45566
-0.0344036
1.46261
-0.0326879
1.46943
-0.031517
1.47619
-0.0307505
1.48292
-0.0302858
1.48966
-0.0300341
1.49642
-0.0299318
1.50322
-0.0299401
1.51008
-0.0297089
1.51701
-0.0296816
1.52401
-0.0297527
1.53109
-0.0299579
1.53824
-0.0291654
1.54547
-0.0292687
1.55278
-0.0289297
-0.0289908
1.56015
0.445188
-1.96864
-0.253489
0.614527
-1.72845
0.761913
-1.4937
0.888602
-1.27703
0.996404
-1.08115
1.08737
-0.907657
1.16361
-0.756472
1.22715
-0.626525
1.27989
-0.516163
1.32354
-0.423423
1.35963
-0.346293
1.3895
-0.282847
1.41431
-0.23113
1.43506
-0.189427
1.45259
-0.156212
1.46765
-0.130139
1.48082
-0.110027
1.49265
-0.0948695
1.50356
-0.0837795
1.51391
-0.0760184
1.52404
-0.0709078
1.53317
-0.0598772
1.54167
-0.0531446
1.54969
-0.0481717
1.55734
-0.0444744
1.56473
-0.0417923
1.57193
-0.0398939
1.57902
-0.0386049
1.58604
-0.037772
1.59304
-0.0372813
1.60004
-0.0370352
1.60707
-0.0369624
1.61415
-0.0370179
1.62129
-0.0368516
1.6285
-0.0368947
1.63579
-0.0370401
1.64315
-0.0373199
1.65061
-0.0366182
1.65813
-0.0367964
1.66574
-0.0365364
-0.0366665
1.67342
0.47535
-2.17623
-0.267763
0.658721
-1.91182
0.818335
-1.65331
0.955552
-1.41424
1.07233
-1.19793
1.17089
-1.00621
1.25349
-0.839079
1.32234
-0.695374
1.37948
-0.573298
1.42675
-0.470695
1.46581
-0.385349
1.49809
-0.315131
1.52486
-0.257897
1.54719
-0.211754
1.56599
-0.17502
1.58207
-0.146211
1.59606
-0.124026
1.60855
-0.107356
1.62
-0.0952272
1.63081
-0.0868279
1.64132
-0.0814195
1.65078
-0.0693369
1.65956
-0.0619294
1.66783
-0.0564394
1.67571
-0.0523567
1.68332
-0.0493959
1.69073
-0.0473052
1.69802
-0.0458926
1.70524
-0.044991
1.71243
-0.0444743
1.71963
-0.0442355
1.72686
-0.044195
1.73414
-0.044301
1.7415
-0.0442043
1.74892
-0.0443223
1.75643
-0.0445459
1.76401
-0.0449038
1.77169
-0.044299
1.77945
-0.0445552
1.7873
-0.044378
-0.0445793
1.79521
0.508207
-2.40114
-0.283296
0.706885
-2.1105
0.87984
-1.82627
1.02855
-1.56296
1.15514
-1.32452
1.26199
-1.11307
1.35156
-0.928652
1.42623
-0.770036
1.48818
-0.635252
1.53942
-0.521938
1.58173
-0.427658
1.61667
-0.350067
1.64558
-0.286811
1.66964
-0.235811
1.68983
-0.195214
1.70701
-0.163387
1.72188
-0.138903
1.73507
-0.120539
1.74707
-0.107229
1.75832
-0.0980822
1.7692
-0.092295
1.77895
-0.0790908
1.78798
-0.0709562
1.79645
-0.0649096
1.80451
-0.0604126
1.81226
-0.0571526
1.81981
-0.0548555
1.82723
-0.0533104
1.83457
-0.0523349
1.84189
-0.0517901
1.84921
-0.0515585
1.85657
-0.051552
1.86398
-0.0517113
1.87146
-0.0516884
1.87903
-0.0518855
1.88667
-0.0521916
1.8944
-0.0526315
1.90223
-0.0521302
1.91015
-0.052468
1.91815
-0.0523784
-0.0526541
1.92622
0.543976
-2.64496
-0.30016
0.75936
-2.32588
0.946884
-2.01379
1.10815
-1.72422
1.24546
-1.46182
1.36139
-1.229
1.45859
-1.02585
1.53962
-0.851065
1.60685
-0.702487
1.66245
-0.577536
1.70833
-0.473537
1.74617
-0.387909
1.77744
-0.318077
1.80338
-0.261758
1.82509
-0.216916
1.84346
-0.181758
1.85927
-0.154717
1.87318
-0.134452
1.88575
-0.119794
1.89744
-0.109769
1.90864
-0.103502
1.91865
-0.0890967
1.92786
-0.080173
1.93648
-0.0735222
1.94464
-0.0685754
1.95248
-0.0649898
1.96009
-0.0624674
1.96756
-0.0607769
1.97494
-0.0597193
1.98229
-0.0591418
1.98965
-0.0589157
1.99704
-0.0589434
2.00449
-0.0591578
2.01201
-0.0592124
2.01962
-0.0594925
2.02731
-0.0598855
2.03509
-0.0604114
2.04298
-0.0600204
2.05096
-0.0604443
2.05903
-0.0604475
-0.0608016
2.06717
0.582897
-2.90942
-0.318436
0.816531
-2.55951
1.01997
-2.21723
1.19497
-1.89922
1.344
-1.61085
1.46987
-1.35486
1.57542
-1.13141
1.66343
-0.939074
1.73646
-0.775517
1.79684
-0.637914
1.84664
-0.523334
1.88767
-0.428941
1.92151
-0.351921
1.94952
-0.28977
1.97287
-0.240258
1.99252
-0.201416
2.00933
-0.171528
2.02401
-0.149123
2.03714
-0.132926
2.04923
-0.121866
2.06073
-0.114995
2.07093
-0.0993001
2.08027
-0.0895152
2.08896
-0.0822041
2.09714
-0.0767643
2.10497
-0.0728208
2.11256
-0.0700492
2.11998
-0.0681964
2.1273
-0.0670451
2.13459
-0.0664277
2.14187
-0.0662031
2.1492
-0.0662638
2.15657
-0.0665339
2.16403
-0.0666689
2.17157
-0.0670356
2.1792
-0.0675194
2.18693
-0.0681357
2.19477
-0.067862
2.2027
-0.0683767
2.21073
-0.0684786
-0.0689156
2.21885
0.62524
-3.19645
-0.338215
0.878823
-2.8131
1.09967
-2.43808
1.28969
-2.08924
1.45156
-1.77273
1.58831
-1.49161
1.70303
-1.24613
1.7987
-1.03474
1.87809
-0.854906
1.94371
-0.70354
1.99781
-0.577432
2.04234
-0.473472
2.07901
-0.388588
2.10928
-0.320039
2.1344
-0.265381
2.15545
-0.222459
2.17331
-0.189396
2.18877
-0.16458
2.20246
-0.146618
2.21494
-0.134341
2.22666
-0.126717
2.23699
-0.109632
2.24638
-0.0989022
2.25504
-0.0908651
2.26316
-0.0848811
2.27088
-0.0805405
2.27832
-0.0774905
2.28557
-0.0754536
2.29272
-0.0741934
2.29982
-0.0735257
2.30691
-0.0732965
2.31404
-0.073387
2.32121
-0.0737121
2.32848
-0.0739295
2.33583
-0.0743857
2.34327
-0.0749641
2.35081
-0.0756749
2.35847
-0.0755257
2.36623
-0.0761364
2.3741
-0.0763433
-0.0768684
2.38205
0.671303
-3.50815
-0.359595
0.946714
-3.08851
1.18662
-2.67799
1.39309
-2.29571
1.56903
-1.94867
1.71771
-1.6403
1.84248
-1.3709
1.94656
-1.13882
2.03294
-0.941283
2.10433
-0.774934
2.16315
-0.636257
2.21153
-0.521846
2.25129
-0.42835
2.28402
-0.352772
2.31108
-0.292438
2.33361
-0.244992
2.3526
-0.208381
2.36886
-0.180844
2.3831
-0.160858
2.39591
-0.147147
2.40778
-0.138591
2.41815
-0.120005
2.42749
-0.108235
2.43602
-0.0993951
2.44394
-0.0928073
2.45142
-0.0880232
2.45859
-0.0846591
2.46555
-0.0824117
2.47238
-0.0810231
2.47915
-0.0802917
2.4859
-0.0800488
2.49268
-0.0801639
2.49951
-0.0805418
2.50642
-0.0808424
2.51342
-0.0813904
2.52053
-0.0820667
2.52773
-0.0828758
2.53506
-0.0828585
2.54249
-0.0835704
2.55004
-0.0838892
-0.0845083
2.55768
0.721417
-3.84689
-0.382684
1.02073
-3.38782
1.28151
-2.93877
1.50601
-2.5202
1.69738
-2.14004
1.85917
-1.80208
1.99498
-1.50671
2.1083
-1.25213
2.20236
-1.03534
2.28009
-0.85267
2.34412
-0.700279
2.39671
-0.57444
2.43986
-0.471503
2.47529
-0.388195
2.50444
-0.321593
2.52858
-0.269124
2.54874
-0.228544
2.56583
-0.19793
2.58059
-0.175621
2.59366
-0.160223
2.60559
-0.150519
2.6159
-0.130309
2.62505
-0.117389
2.63331
-0.107659
2.6409
-0.100397
2.648
-0.0951151
2.65473
-0.0913946
2.66122
-0.0889041
2.66756
-0.0873631
2.67382
-0.0865504
2.68006
-0.0862819
2.68631
-0.0864141
2.6926
-0.0868406
2.69899
-0.0872238
2.70546
-0.0878647
2.71203
-0.0886417
2.71871
-0.0895528
2.72553
-0.0896746
2.73245
-0.0904934
2.73949
-0.0909313
-0.0916506
2.74664
0.77595
-4.21524
-0.407598
1.10147
-3.71334
1.38514
-3.22245
1.62943
-2.76449
1.83774
-2.34835
2.01392
-1.97826
2.16187
-1.65466
2.28536
-1.37562
2.38787
-1.13786
2.47259
-0.937389
2.54233
-0.77002
2.59956
-0.631674
2.64644
-0.518378
2.6848
-0.426559
2.71624
-0.353027
2.74208
-0.294971
2.76348
-0.249945
2.7814
-0.215846
2.79665
-0.190868
2.80991
-0.173486
2.82177
-0.16238
2.83187
-0.14041
2.8407
-0.126215
2.84853
-0.115494
2.85562
-0.107479
2.86214
-0.101634
2.86825
-0.0975074
2.87408
-0.0947352
2.87973
-0.0930124
2.88527
-0.0920967
2.89078
-0.0917871
2.89629
-0.0919259
2.90185
-0.0923947
2.90748
-0.0928583
2.91321
-0.0935922
2.91904
-0.0944717
2.92497
-0.095488
2.93105
-0.0957563
2.93725
-0.0966875
2.94357
-0.097252
-0.0980785
2.95
0.835309
-4.61609
-0.434464
1.18958
-4.06761
1.49839
-3.53125
1.7644
-3.0305
1.99134
-2.57529
2.18335
-2.17027
2.34466
-1.81597
2.47934
-1.5103
2.59117
-1.24969
2.68359
-1.0298
2.75963
-0.84606
2.82197
-0.694014
2.87292
-0.569338
2.9145
-0.468137
2.94841
-0.386931
2.97609
-0.322655
2.99879
-0.272639
3.01753
-0.234593
3.03321
-0.206543
3.04655
-0.186831
3.05819