/*--------------------------------*- C++ -*----------------------------------*\
| =========                 |                                                 |
| \\      /  F ield         | OpenFOAM: The Open Source CFD Toolbox           |
|  \\    /   O peration     | Version:  2312                                  |
|   \\  /    A nd           | Website:  www.openfoam.com                      |
|    \\/     M anipulation  |                                                 |
\*---------------------------------------------------------------------------*/
FoamFile
{
    version     2.0;
    format      ascii;
    arch        "LSB;label=32;scalar=64";
    class       volScalarField;
    location    "250";
    object      turbulenceProperties:L;
}
// * * * * * * * * * * * * * * * * * * * * * * * * * * * * * * * * * * * * * //

dimensions      [0 1 0 0 0 0 0];

internalField   nonuniform List<scalar> 
11040
(
0.00022111
0.000201275
0.000226746
0.000292607
0.000421084
0.000769263
0.000993919
0.00106139
0.00113757
0.00127328
0.00142278
0.0014109
0.00134501
0.00129088
0.00125981
0.00124323
0.00123429
0.00122919
0.00122682
0.00122733
0.00123133
0.00123955
0.00125068
0.00126265
0.0012752
0.00128903
0.00130439
0.0013214
0.00134015
0.00136087
0.00138392
0.00140978
0.00143898
0.00147087
0.00149233
0.00142757
0.00142417
0.00151319
0.00166805
0.00189374
0.00294361
0.000495723
0.000449367
0.000402983
0.000413305
0.000422796
0.000561885
0.000745683
0.000983033
0.00129654
0.00165089
0.00196198
0.00222308
0.00246553
0.00271058
0.00296026
0.00320147
0.00341553
0.00359022
0.00372936
0.0038499
0.00396077
0.00406168
0.00416041
0.00425769
0.00434537
0.00442202
0.0044906
0.00455414
0.00461359
0.00466915
0.00472096
0.00476945
0.00481572
0.00486053
0.00490234
0.00492852
0.00496821
0.00503816
0.00513223
0.00532119
0.00508736
0.000655329
0.000756125
0.000809763
0.000942281
0.00141254
0.000667193
0.000662338
0.000779783
0.000939641
0.00113812
0.00140357
0.00172064
0.00206885
0.00242776
0.00277547
0.00309576
0.00338533
0.0036545
0.00392312
0.00420827
0.00451182
0.00480908
0.00507533
0.00531653
0.00553689
0.00574224
0.00593818
0.0061276
0.00631048
0.00648554
0.00665156
0.00680786
0.00695419
0.00709086
0.00721608
0.00732364
0.00742702
0.00754684
0.0076872
0.00801944
0.00823611
0.000780261
0.000814077
0.000875914
0.000940702
0.00101897
0.00128922
0.00172964
0.0017781
0.00101615
0.000882573
0.000897813
0.000973816
0.00112535
0.00137598
0.00172037
0.00213812
0.00260264
0.00308761
0.00356697
0.00401943
0.00443491
0.00480357
0.00513462
0.00545632
0.0057782
0.00610011
0.00641705
0.00672345
0.00701499
0.00729001
0.00754948
0.00779566
0.00803081
0.00825701
0.00847415
0.00868126
0.0088804
0.00908605
0.00929798
0.00969799
0.00990551
0.00093777
0.000954554
0.000995309
0.00106892
0.00114624
0.00122695
0.0014324
0.00204237
0.00374554
0.00914802
0.0432855
0.00166893
0.00403045
0.00402019
0.0128583
0.00265092
0.00183106
0.00217712
0.00265557
0.00318557
0.00375465
0.00430139
0.00479701
0.00525201
0.00566809
0.00604749
0.00639834
0.00673094
0.00705486
0.00737724
0.0077019
0.00802936
0.00835739
0.00868338
0.00900368
0.0093157
0.00961798
0.00992327
0.010226
0.0106567
0.010898
0.00113678
0.00113279
0.00115116
0.00120105
0.00126946
0.00133182
0.00138356
0.00145973
0.00159676
0.00182381
0.00216197
0.00261473
0.00296296
0.00372569
0.00471611
0.0227086
0.00254658
0.0125595
0.0164942
0.00545355
0.00346386
0.00475245
0.00454356
0.00478926
0.00516381
0.00558172
0.00600967
0.00643197
0.00684023
0.00723034
0.00760198
0.00795816
0.00830401
0.00864711
0.00899424
0.00935109
0.00971971
0.0101119
0.0105153
0.0109988
0.011348
0.0013647
0.00134721
0.00133396
0.00134542
0.00138408
0.00144303
0.00150953
0.00157716
0.00165321
0.00174795
0.00186858
0.00202069
0.00221277
0.00238666
0.00254371
0.00272769
0.00296239
0.00331685
0.00408816
0.011639
0.00381794
0.00214647
0.0026464
0.00305696
0.00323023
0.00410431
0.00618177
0.00641109
0.00650153
0.00674718
0.00708166
0.0074625
0.00786237
0.00827014
0.00868027
0.00909133
0.009503
0.00993005
0.0103645
0.0108545
0.011262
0.00163001
0.0016041
0.0015707
0.00155734
0.00157044
0.00160464
0.00165347
0.00171444
0.00179085
0.00188767
0.00200999
0.0021627
0.00234505
0.00254341
0.0027406
0.00291269
0.00306817
0.00323134
0.0033589
0.00358588
0.00397287
0.00473957
0.00567104
0.0273919
0.0118385
0.00474143
0.0769935
0.00313284
0.00403004
0.00795214
0.00403428
0.00599949
0.00693496
0.00734457
0.0077641
0.0082256
0.00871614
0.00924065
0.00976574
0.0103404
0.0108377
0.00193618
0.00190513
0.00185732
0.00181938
0.00180344
0.0018102
0.00183645
0.00187992
0.00194174
0.00202572
0.00213577
0.00227497
0.00244296
0.0026318
0.00282823
0.00301865
0.00319702
0.00336026
0.00351453
0.00364659
0.00376672
0.00394521
0.0041818
0.00441711
0.00480841
0.00536049
0.00645007
0.00887992
0.0759832
0.0295112
0.0095389
0.00429557
0.00385149
0.00412238
0.00434236
0.00467047
0.00623683
0.00731197
0.00815217
0.00897843
0.00972792
0.00229262
0.0022582
0.00220109
0.00214521
0.00210513
0.00208594
0.0020876
0.00210854
0.00214908
0.00221146
0.0022985
0.00241246
0.00255343
0.0027166
0.00289299
0.00307244
0.00324761
0.00341511
0.00357399
0.00372497
0.00386834
0.00400175
0.00413468
0.00425446
0.00437775
0.00451213
0.00467073
0.0048214
0.00510368
0.00559897
0.00653245
0.0082008
0.0152251
0.115675
0.019103
0.0123736
0.0051163
0.00523591
0.00503413
0.00497153
0.00638838
0.0027088
0.00267179
0.00260837
0.00253894
0.0024779
0.00243305
0.00240779
0.00240309
0.00241954
0.00245857
0.00252133
0.00260946
0.00272329
0.00285988
0.00301318
0.00317545
0.00333989
0.00350222
0.00366042
0.00381452
0.00396495
0.00410953
0.00424859
0.00438238
0.00450693
0.00461851
0.00471515
0.00480142
0.00486449
0.00494228
0.0050437
0.0051979
0.00545766
0.00604888
0.00685988
0.00902534
0.0200126
0.0813154
0.0194939
0.0178809
0.0052114
0.00319697
0.00315789
0.00308982
0.0030103
0.00293251
0.00286523
0.00281421
0.00278252
0.00277204
0.00278414
0.00281981
0.00287989
0.00296465
0.00307225
0.00319878
0.00333877
0.00348666
0.00363811
0.00379031
0.00394201
0.00409221
0.00423765
0.00437733
0.00451334
0.00464386
0.00476597
0.00487787
0.00497978
0.00507097
0.00515212
0.00522434
0.0052889
0.00534277
0.00539433
0.00546757
0.00560405
0.00591307
0.00667202
0.00877003
0.0120914
0.101275
0.00377133
0.00373041
0.00365838
0.00357062
0.00347884
0.00339173
0.00331624
0.00325723
0.00321791
0.0032007
0.00320674
0.00323687
0.00329117
0.00336838
0.00346604
0.00358042
0.00370729
0.0038428
0.00398396
0.00412897
0.00427572
0.0044193
0.00455747
0.00469201
0.00482217
0.00494636
0.00506356
0.00517384
0.0052779
0.00537643
0.00547034
0.00555979
0.00564467
0.00572221
0.00579116
0.00585361
0.00590569
0.00595239
0.00605782
0.00618421
0.00690375
0.00444911
0.0044065
0.00433066
0.0042356
0.00413167
0.00402713
0.0039294
0.00384434
0.00377633
0.00372866
0.00370324
0.00370116
0.00372294
0.0037678
0.00383407
0.00391932
0.00402049
0.0041345
0.00425863
0.004391
0.00452907
0.00466695
0.0048014
0.00493362
0.0050628
0.00518786
0.00530807
0.00542335
0.00553413
0.00564111
0.00574516
0.00584721
0.00594813
0.00604885
0.00614951
0.00624962
0.00634754
0.00643747
0.00651846
0.00659341
0.00664449
0.00525131
0.00520681
0.00512681
0.00502464
0.00490936
0.00478868
0.00467019
0.00456029
0.00446407
0.0043857
0.00432787
0.00429228
0.00427996
0.00429094
0.00432418
0.00437802
0.00445035
0.00453887
0.0046413
0.00475592
0.0048802
0.00500793
0.0051354
0.0052632
0.00539016
0.00551525
0.00563783
0.00575768
0.00587496
0.00599007
0.0061036
0.00621627
0.00632889
0.00644249
0.00655806
0.00667626
0.00679791
0.00692415
0.00705322
0.00719588
0.00730264
0.00620217
0.00615518
0.00607053
0.00596136
0.00583513
0.00569902
0.00556078
0.00542722
0.00530384
0.00519543
0.00510539
0.00503598
0.00498881
0.00496461
0.00496336
0.00498401
0.00502507
0.00508496
0.00516196
0.00525462
0.0053607
0.00547416
0.00559108
0.00571155
0.00583395
0.00595716
0.00608051
0.00620365
0.00632652
0.00644927
0.00657224
0.00669599
0.00682105
0.00694832
0.00707865
0.00721259
0.00735101
0.00749531
0.00764654
0.00781201
0.00796394
0.00732211
0.00727261
0.00718322
0.00706721
0.00693012
0.00677866
0.006621
0.00646431
0.00631442
0.00617651
0.00605457
0.00595137
0.00586902
0.00580896
0.0057719
0.00575788
0.00576604
0.00579511
0.00584399
0.00591164
0.00599641
0.0060928
0.00619675
0.00630789
0.00642422
0.00654442
0.0066677
0.00679355
0.00692168
0.00705201
0.00718467
0.00731999
0.00745826
0.00760018
0.00774646
0.00789742
0.00805361
0.00821609
0.00838597
0.0085672
0.00874015
0.00859007
0.00853849
0.00844404
0.00832063
0.00817188
0.00800433
0.00782681
0.00764704
0.00747123
0.00730485
0.00715231
0.00701672
0.00690057
0.00680578
0.00673365
0.00668478
0.00665933
0.00665687
0.00667647
0.00671753
0.00677914
0.00685657
0.00694588
0.00704619
0.00715517
0.00727125
0.00739344
0.00752106
0.00765359
0.00779076
0.00793248
0.00807887
0.00822999
0.00838635
0.00854843
0.00871631
0.0088901
0.00907072
0.00925877
0.00945644
0.00964907
0.00996214
0.00990859
0.00980865
0.00967738
0.00951639
0.00933211
0.00913432
0.0089315
0.00873034
0.00853669
0.00835537
0.00818983
0.00804282
0.00791666
0.00781308
0.0077332
0.00767756
0.00764634
0.00763934
0.00765604
0.00769589
0.00775508
0.00782994
0.00791919
0.00802023
0.00813133
0.00825131
0.00837926
0.00851446
0.00865646
0.00880495
0.00895984
0.00912094
0.00928858
0.00946308
0.00964425
0.00983177
0.0100266
0.010229
0.0104397
0.0106486
0.0114197
0.0113648
0.0112604
0.0111224
0.01095
0.0107499
0.0105328
0.0103082
0.0100833
0.00986438
0.0096567
0.00946394
0.00928906
0.00913465
0.0090027
0.00889465
0.00881145
0.00875368
0.00872163
0.00871544
0.00873503
0.00877712
0.00883825
0.0089169
0.00901031
0.00911657
0.00923433
0.00936247
0.00950003
0.0096463
0.00980075
0.0099631
0.0101329
0.0103101
0.0104951
0.0106873
0.010886
0.011092
0.0113058
0.011527
0.011747
0.0129744
0.0129194
0.0128118
0.0126677
0.0124844
0.0122685
0.0120321
0.0117858
0.0115373
0.0112936
0.0110604
0.0108415
0.0106403
0.0104596
0.0103016
0.0101679
0.0100599
0.00997839
0.00992397
0.00989712
0.0098983
0.00992504
0.009974
0.0100432
0.0101299
0.0102319
0.0103478
0.0104763
0.0106162
0.0107665
0.0109265
0.0110958
0.0112736
0.0114597
0.0116543
0.0118565
0.0120651
0.0122814
0.012505
0.0127364
0.0129631
0.0146358
0.0145818
0.0144717
0.014322
0.0141277
0.0138958
0.0136401
0.0133719
0.0131001
0.0128321
0.0125741
0.0123304
0.0121045
0.0118993
0.0117174
0.0115606
0.0114303
0.0113276
0.0112533
0.0112082
0.011193
0.0112059
0.0112438
0.0113045
0.0113852
0.0114835
0.0115979
0.0117268
0.0118689
0.012023
0.0121882
0.0123638
0.0125488
0.012743
0.0129462
0.0131575
0.0133752
0.0136007
0.0138333
0.0140753
0.0143047
0.0164146
0.0163627
0.016251
0.0160958
0.0158903
0.0156422
0.0153666
0.0150762
0.0147807
0.0144883
0.0142056
0.0139374
0.0136874
0.013459
0.0132546
0.0130763
0.0129257
0.012804
0.0127122
0.0126514
0.0126223
0.0126236
0.0126523
0.0127061
0.012782
0.0128777
0.0129915
0.0131215
0.0132663
0.0134245
0.013595
0.0137769
0.013969
0.0141709
0.0143822
0.0146021
0.0148283
0.0150625
0.0153034
0.0155565
0.015785
0.0183221
0.0182732
0.0181603
0.0179997
0.0177827
0.0175176
0.0172214
0.0169081
0.0165885
0.0162712
0.0159638
0.0156714
0.0153981
0.0151472
0.0149217
0.0147235
0.0145545
0.0144159
0.0143089
0.0142346
0.014194
0.0141859
0.0142072
0.0142556
0.0143279
0.014422
0.0145359
0.0146677
0.0148155
0.014978
0.0151538
0.0153418
0.0155408
0.01575
0.0159692
0.0161972
0.0164314
0.0166738
0.0169224
0.0171869
0.0174111
0.0203703
0.0203253
0.0202118
0.0200454
0.0198161
0.0195332
0.0192154
0.0188783
0.0185336
0.018191
0.0178584
0.0175417
0.0172451
0.0169724
0.0167265
0.0165095
0.0163234
0.0161695
0.0160491
0.0159633
0.0159133
0.0158977
0.0159135
0.0159582
0.0160285
0.0161223
0.0162373
0.0163715
0.0165231
0.0166905
0.0168721
0.0170667
0.0172728
0.0174896
0.0177168
0.0179531
0.0181954
0.0184461
0.0187025
0.018979
0.0191967
0.0225725
0.0225321
0.0224181
0.0222454
0.0220027
0.0217007
0.02136
0.0209978
0.0206269
0.020258
0.0198998
0.0195584
0.0192386
0.0189443
0.0186786
0.0184438
0.0182418
0.0180742
0.017942
0.0178466
0.0177891
0.017768
0.01778
0.0178225
0.0178922
0.0179867
0.0181039
0.0182416
0.0183977
0.0185703
0.0187581
0.0189596
0.0191728
0.0193972
0.0196323
0.0198766
0.020127
0.0203859
0.0206499
0.0209385
0.0211478
0.024943
0.0249078
0.0247932
0.0246132
0.0243557
0.0240328
0.0236675
0.0232785
0.0228801
0.0224837
0.0220989
0.0217322
0.0213889
0.021073
0.0207878
0.0205358
0.0203189
0.0201385
0.0199959
0.0198923
0.019829
0.019804
0.0198137
0.0198554
0.0199258
0.0200223
0.0201427
0.0202847
0.0204459
0.0206245
0.020819
0.0210277
0.0212484
0.0214809
0.0217241
0.0219769
0.0222356
0.0225031
0.022775
0.023076
0.0232766
0.0274978
0.027468
0.0273524
0.0271635
0.0268892
0.0265433
0.0261511
0.0257333
0.0253055
0.0248801
0.0244675
0.0240747
0.0237073
0.0233697
0.0230652
0.0227964
0.0225651
0.0223729
0.022221
0.0221106
0.0220428
0.0220155
0.0220243
0.0220665
0.0221387
0.0222384
0.0223629
0.0225099
0.022677
0.022862
0.0230637
0.0232799
0.0235087
0.0237492
0.0240008
0.024262
0.0245292
0.0248053
0.0250851
0.0253984
0.0255899
0.0302542
0.0302301
0.0301125
0.0299125
0.0296187
0.0292469
0.028825
0.0283759
0.0279164
0.0274601
0.0270181
0.0265981
0.0262059
0.025846
0.0255221
0.0252366
0.0249914
0.0247881
0.0246277
0.0245115
0.0244404
0.0244118
0.0244208
0.0244645
0.0245395
0.024643
0.0247723
0.024925
0.0250985
0.0252907
0.0254996
0.025724
0.0259613
0.02621
0.0264702
0.0267402
0.0270162
0.0273011
0.0275892
0.0279145
0.0280978
0.0332319
0.0332131
0.0330919
0.0328778
0.0325609
0.0321596
0.0317045
0.0312208
0.0307268
0.0302373
0.0297641
0.0293154
0.0288973
0.0285146
0.0281708
0.0278686
0.0276097
0.0273956
0.0272274
0.0271061
0.0270326
0.0270037
0.0270137
0.0270598
0.0271383
0.0272464
0.0273812
0.0275401
0.0277204
0.0279199
0.0281365
0.028369
0.0286146
0.0288718
0.0291406
0.0294193
0.029704
0.0299975
0.0302939
0.0306304
0.0308063
0.0364527
0.0364385
0.0363111
0.0360789
0.0357344
0.0352988
0.0348062
0.0342839
0.0337521
0.0332265
0.0327197
0.0322405
0.0317951
0.0313885
0.0310243
0.0307051
0.0304324
0.0302078
0.0300321
0.0299061
0.0298308
0.0298022
0.0298138
0.0298628
0.0299454
0.0300585
0.0301992
0.0303646
0.030552
0.030759
0.0309835
0.0312241
0.0314781
0.0317442
0.0320215
0.0323087
0.0326022
0.0329045
0.0332092
0.0335564
0.0337267
0.039941
0.03993
0.0397929
0.0395372
0.0391591
0.0386836
0.038148
0.0375825
0.0370087
0.0364435
0.0359003
0.0353883
0.0349139
0.0344822
0.0340967
0.0337598
0.0334731
0.0332379
0.0330546
0.0329242
0.0328472
0.0328192
0.0328326
0.0328846
0.0329713
0.0330894
0.0332358
0.0334075
0.0336016
0.0338158
0.0340479
0.0342959
0.0345579
0.0348324
0.0351172
0.0354124
0.035714
0.0360241
0.0363364
0.0366926
0.0368578
0.0437243
0.0437144
0.0435626
0.0432764
0.0428572
0.0423346
0.0417497
0.0411351
0.0405144
0.0399057
0.0393227
0.0387751
0.0382696
0.0378111
0.037403
0.0370475
0.0367461
0.0364997
0.0363087
0.0361737
0.0360951
0.0360676
0.0360828
0.0361379
0.0362288
0.0363521
0.0365044
0.0366825
0.0368835
0.037105
0.0373446
0.0376001
0.03787
0.0381522
0.038445
0.038748
0.0390576
0.0393754
0.0396953
0.0400595
0.0402234
0.0478336
0.0478217
0.0476483
0.0473226
0.0468532
0.0462749
0.0456328
0.0449624
0.0442891
0.0436319
0.0430051
0.0424187
0.0418794
0.0413919
0.0409594
0.040584
0.0402668
0.0400084
0.0398088
0.0396683
0.0395871
0.0395595
0.0395754
0.0396323
0.0397262
0.039853
0.0400093
0.0401919
0.0403978
0.0406244
0.0408692
0.0411302
0.0414056
0.0416931
0.0419914
0.0422999
0.0426149
0.042938
0.0432628
0.0436321
0.0437913
0.0523039
0.0522855
0.0520816
0.0517048
0.051174
0.0505298
0.0498215
0.0490876
0.048355
0.0476436
0.0469683
0.046339
0.0457625
0.0452432
0.0447841
0.0443868
0.0440522
0.0437804
0.0435712
0.0434244
0.0433402
0.0433121
0.0433288
0.043388
0.0434853
0.0436165
0.043778
0.0439663
0.0441782
0.0444111
0.0446624
0.0449299
0.0452118
0.0455057
0.0458107
0.0461251
0.0464462
0.0467751
0.047106
0.0474791
0.0476442
0.0571749
0.0571438
0.0568974
0.0564556
0.0558499
0.055128
0.0543433
0.0535371
0.0527377
0.0519656
0.051236
0.0505589
0.0499408
0.0493861
0.0488972
0.0484753
0.0481206
0.0478329
0.0476114
0.0474553
0.0473644
0.0473316
0.047344
0.0473996
0.0474941
0.047623
0.0477824
0.047969
0.0481796
0.0484113
0.0486617
0.0489284
0.0492094
0.0495027
0.0498074
0.050121
0.0504419
0.0507705
0.0511005
0.0514733
0.0516249
0.0624907
0.0624386
0.0621347
0.0616112
0.0609158
0.0601031
0.0592306
0.058342
0.057467
0.0566266
0.055836
0.0551052
0.0544403
0.0538453
0.0533223
0.052872
0.0524943
0.0521885
0.0519534
0.0517879
0.0516921
0.0516581
0.0516715
0.0517303
0.0518298
0.0519649
0.0521312
0.052325
0.0525428
0.0527814
0.0530382
0.0533109
0.0535974
0.0538957
0.0542044
0.0545221
0.0548469
0.0551781
0.0555118
0.0558804
0.0560584
0.068301
0.0682165
0.0678359
0.0672117
0.0664112
0.0654952
0.0645237
0.063542
0.062581
0.0616625
0.0608022
0.06001
0.0592917
0.0586504
0.0580874
0.0576028
0.0571955
0.0568639
0.0566056
0.0564184
0.0563015
0.0562462
0.0562369
0.0562726
0.0563492
0.0564618
0.0566065
0.0567796
0.0569779
0.0571987
0.0574392
0.0576971
0.0579702
0.058256
0.0585532
0.0588607
0.0591753
0.0594975
0.0598199
0.0601867
0.0603105
0.0746616
0.0745303
0.0740497
0.0733029
0.0723806
0.0713489
0.0702689
0.069186
0.0681302
0.0671234
0.066182
0.0653169
0.0645346
0.0638383
0.0632287
0.0627053
0.0622666
0.0619115
0.0616381
0.0614446
0.061331
0.0612881
0.0612973
0.0613561
0.0614583
0.0615974
0.0617675
0.0619638
0.0621825
0.0624202
0.0626742
0.062942
0.0632216
0.0635106
0.0638082
0.0641136
0.0644255
0.0647413
0.0650624
0.0653987
0.0656211
0.0816326
0.0814396
0.0808359
0.0799466
0.0788857
0.0777229
0.0765207
0.0753258
0.0741683
0.0730682
0.0720394
0.0710919
0.0702322
0.0694648
0.0687912
0.0682095
0.0677154
0.0673035
0.0669679
0.0667038
0.0665091
0.0663762
0.0662885
0.0662484
0.0662537
0.0663002
0.0663844
0.0665032
0.0666536
0.0668325
0.0670367
0.0672633
0.067509
0.0677708
0.0680471
0.0683372
0.0686354
0.0689435
0.0692475
0.0696164
0.0696424
0.0892703
0.0889993
0.0882555
0.08722
0.0860226
0.0847244
0.0833845
0.0820535
0.080768
0.0795539
0.0784274
0.0773954
0.0764595
0.0756205
0.0748804
0.0742434
0.0737136
0.0732939
0.0729838
0.0727788
0.072678
0.0726654
0.0727141
0.0728149
0.072957
0.07313
0.0733254
0.073537
0.0737601
0.0739915
0.0742283
0.0744683
0.0747115
0.0749561
0.0752019
0.0754496
0.0757015
0.0759505
0.0762154
0.0764354
0.0768079
0.0976264
0.0972494
0.0963415
0.0951669
0.0938671
0.0924795
0.0910414
0.0895894
0.088157
0.0867791
0.0854888
0.0843111
0.0832569
0.0823232
0.0814952
0.0807531
0.080078
0.0794572
0.0788853
0.0783641
0.0778977
0.0774916
0.0771385
0.0768521
0.0766359
0.0764882
0.076406
0.0763858
0.0764229
0.076512
0.0766478
0.0768253
0.0770383
0.0772828
0.0775525
0.0778478
0.0781582
0.0784893
0.0788033
0.0792643
0.0790256
0.106772
0.10627
0.105166
0.103825
0.102412
0.100961
0.0994987
0.0980426
0.0965941
0.0951546
0.0937351
0.0923618
0.0910744
0.0899205
0.0889444
0.088177
0.0876303
0.087297
0.0871561
0.0871737
0.0873352
0.0875998
0.0879196
0.0882644
0.0886136
0.0889516
0.0892666
0.0895499
0.0897961
0.090003
0.0901706
0.0903003
0.0903968
0.0904634
0.0905019
0.0905151
0.0905252
0.0905076
0.0905394
0.0903336
0.0911397
0.1168
0.116263
0.115059
0.113595
0.112012
0.110346
0.10867
0.107063
0.105573
0.104212
0.102957
0.101758
0.100551
0.0992781
0.0979058
0.0964304
0.0948786
0.0932994
0.0917493
0.0902877
0.0889398
0.0877404
0.0867005
0.0858411
0.0851565
0.0846317
0.0842507
0.0839986
0.0838608
0.0838244
0.0838781
0.0840127
0.0842178
0.0844879
0.0848155
0.0852001
0.0856231
0.0861019
0.0865521
0.0873255
0.0867048
0.127644
0.127231
0.126268
0.125169
0.123918
0.122373
0.120499
0.118357
0.116078
0.113841
0.111834
0.110211
0.109072
0.108458
0.108345
0.108664
0.109309
0.11016
0.111109
0.112047
0.113
0.113952
0.114913
0.115826
0.116676
0.11745
0.118118
0.118642
0.118992
0.119152
0.119122
0.118905
0.118513
0.117959
0.117258
0.116419
0.115508
0.114474
0.113535
0.11191
0.112932
0.138818
0.138206
0.137279
0.136723
0.136543
0.136491
0.13635
0.13591
0.13494
0.133216
0.13059
0.127056
0.122793
0.118109
0.113351
0.10881
0.104683
0.101077
0.0980184
0.0955134
0.0934554
0.0917774
0.0904619
0.0894635
0.0887211
0.0881815
0.0878104
0.0875622
0.0874277
0.0873719
0.0873778
0.0874438
0.0875675
0.0877519
0.0879905
0.0882833
0.0886166
0.0890128
0.0894035
0.0899816
0.0899166
0.149866
0.148558
0.14663
0.14505
0.144196
0.144156
0.144975
0.14659
0.148775
0.151126
0.153088
0.154076
0.153687
0.1519
0.149074
0.145754
0.142449
0.139514
0.13713
0.135342
0.13419
0.133648
0.133924
0.134755
0.135965
0.137459
0.13907
0.14044
0.141199
0.141418
0.141378
0.141197
0.140905
0.140524
0.140073
0.139596
0.139059
0.138665
0.137704
0.139209
0.131681
0.161476
0.161783
0.159204
0.151717
0.140362
0.128275
0.117626
0.10902
0.102317
0.0971896
0.0933269
0.0904796
0.0884551
0.0871069
0.0863209
0.0860055
0.0860844
0.0864927
0.0871741
0.0880885
0.0891836
0.0902006
0.0912997
0.0924131
0.0935137
0.0946007
0.0956365
0.0967838
0.0980832
0.0994355
0.100814
0.102224
0.103694
0.105269
0.106974
0.108847
0.110944
0.113329
0.116255
0.118329
0.126722
0.00322792
0.00460378
0.00578051
0.0067245
0.00750849
0.00820338
0.0088432
0.0094486
0.0100205
0.010576
0.0111297
0.0116962
0.0122876
0.0129033
0.0135607
0.014295
0.0148873
0.0158127
0.021607
0.0168003
0.0151437
0.105643
0.042486
0.0283888
0.0248475
0.0251425
0.027204
0.0297476
0.031574
0.0330891
0.0347656
0.0367875
0.0391757
0.041939
0.0451085
0.0487191
0.0527652
0.0572261
0.0620181
0.0670531
0.0721919
0.0773115
0.0822856
0.087151
0.0918651
0.0980365
0.104145
0.109246
0.11489
0.121621
0.12954
0.138516
0.148647
0.159846
0.172156
0.185159
0.198301
0.211183
0.22013
0.225494
0.227341
0.225062
0.220562
0.214409
0.20802
0.201782
0.195784
0.19041
0.185026
0.180934
0.175333
0.173935
0.165694
0.168973
0.00613238
0.0063447
0.0071914
0.00805531
0.00883342
0.00952101
0.0101363
0.0107037
0.0112386
0.0117499
0.0122473
0.0127411
0.0132418
0.0137589
0.0142979
0.0148716
0.0154442
0.0160333
0.0164758
0.0169865
0.0183478
0.0230977
0.0133022
0.0312889
0.263233
0.0387285
0.0291838
0.0284568
0.0296099
0.0319743
0.0343489
0.0365613
0.0388477
0.041404
0.0443498
0.0477781
0.0517353
0.0562315
0.0611982
0.0665134
0.0720105
0.0775257
0.0828932
0.0881198
0.0929496
0.100589
0.106808
0.112997
0.119196
0.12607
0.134193
0.143491
0.154055
0.165656
0.178288
0.191281
0.204324
0.214617
0.221641
0.226653
0.22814
0.225642
0.220794
0.214475
0.207918
0.201568
0.195502
0.190071
0.184681
0.180509
0.175027
0.173378
0.165592
0.168248
0.0150432
0.0118469
0.0106499
0.0107187
0.0111287
0.0116089
0.0120751
0.0125182
0.0129469
0.0133655
0.0137765
0.0141845
0.0145962
0.0150193
0.0154584
0.0159195
0.0164007
0.0169039
0.0173991
0.0178365
0.0180651
0.0182425
0.0182584
0.0221155
0.0195351
0.0773458
3.758
0.0507867
0.0343962
0.0324858
0.0324857
0.0343237
0.0371932
0.0403478
0.0435992
0.0470638
0.0508824
0.055178
0.0600346
0.06544
0.0712801
0.0773361
0.0833298
0.0891182
0.094386
0.100104
0.106755
0.113978
0.120909
0.127907
0.135817
0.145003
0.155554
0.167292
0.180081
0.193301
0.20629
0.215258
0.222789
0.227534
0.228632
0.226042
0.220854
0.214424
0.207717
0.201269
0.19515
0.189672
0.184283
0.180029
0.174686
0.172777
0.165472
0.167488
0.0114372
0.0157544
0.0208991
0.0191147
0.0172051
0.0163566
0.0159963
0.0158736
0.0158862
0.0159804
0.0161283
0.0163183
0.0165451
0.0168062
0.0170991
0.0174218
0.0177738
0.0181538
0.0185576
0.0189645
0.0193419
0.0196395
0.0197573
0.019873
0.0205729
0.234351
0.0186606
0.335932
0.104777
0.12844
0.0453893
0.0398669
0.0378596
0.0381447
0.0408036
0.0447328
0.0492038
0.0540283
0.059214
0.0647258
0.0705711
0.0767491
0.0831543
0.0896175
0.0958672
0.10058
0.106329
0.113312
0.120501
0.127548
0.134982
0.143534
0.153511
0.164906
0.177509
0.19085
0.204283
0.215341
0.223815
0.228342
0.228946
0.226129
0.220761
0.21421
0.20738
0.20085
0.194694
0.18918
0.183808
0.179489
0.174276
0.172139
0.165278
0.166742
0.0114431
0.0128643
0.0150998
0.0186002
0.0240997
0.0309001
0.0311118
0.0270006
0.0240959
0.0223057
0.0211836
0.0204851
0.0200678
0.0198432
0.0197557
0.0197716
0.0198704
0.0200364
0.0202588
0.0205238
0.0208156
0.0211054
0.0213654
0.0215205
0.0215932
0.0212484
0.0212013
0.0204577
0.143574
0.0333172
0.0336445
0.0540795
0.0741503
0.0504479
0.046066
0.044166
0.0454628
0.049486
0.0552256
0.0619345
0.0692781
0.0768062
0.0840531
0.0908487
0.0974645
0.102568
0.107883
0.114525
0.122132
0.129881
0.137542
0.145711
0.155054
0.165911
0.178142
0.191237
0.204273
0.216639
0.225385
0.229225
0.229078
0.225893
0.220441
0.213829
0.206921
0.200324
0.194139
0.188602
0.183257
0.178887
0.1738
0.171469
0.16501
0.165994
0.0116515
0.0123217
0.0132732
0.0144913
0.0160716
0.0181413
0.0209876
0.0252112
0.0321287
0.0437263
0.0459874
0.036481
0.030861
0.0277034
0.0257854
0.0245796
0.0238239
0.0233674
0.0231197
0.0230225
0.023036
0.0231257
0.0232645
0.0234137
0.0235477
0.0236117
0.0235263
0.0231376
0.0228375
0.0212546
0.0343944
0.0172306
0.0748268
0.115554
0.385105
0.0711391
0.0605208
0.0569233
0.0549101
0.0566892
0.0621769
0.0702792
0.0801218
0.0906429
0.100642
0.108049
0.113271
0.118371
0.124791
0.132554
0.14099
0.149802
0.159253
0.169829
0.181664
0.194424
0.207085
0.219094
0.227207
0.230089
0.228932
0.225201
0.219675
0.213137
0.206266
0.199652
0.193459
0.187912
0.182608
0.178203
0.173244
0.170754
0.164663
0.165208
0.0114835
0.0119179
0.0124882
0.0131761
0.014007
0.0149878
0.016142
0.0175378
0.0192865
0.0215548
0.0246722
0.0293347
0.0372463
0.0533562
0.0625626
0.0450016
0.0366297
0.0323285
0.0298148
0.0282571
0.0272777
0.0266712
0.0263141
0.0261211
0.0260309
0.0260004
0.0259747
0.0259035
0.0257076
0.0252448
0.0248156
0.0247734
0.0232884
0.0892408
0.0268264
0.0270146
0.0463305
0.191366
0.0890216
0.0853802
0.0790448
0.0734078
0.0740249
0.0803724
0.0909781
0.103952
0.116681
0.126892
0.134528
0.141066
0.147767
0.1553
0.164038
0.17433
0.18615
0.198973
0.2115
0.222385
0.229283
0.231017
0.228628
0.224066
0.218325
0.21194
0.205262
0.19875
0.192607
0.187081
0.181837
0.177418
0.172591
0.169982
0.16423
0.164364
0.0109737
0.0113182
0.0117207
0.0121837
0.0127547
0.0134312
0.0141989
0.0150589
0.016025
0.0171208
0.0183911
0.0199166
0.0218282
0.0243316
0.0278082
0.0330861
0.0423207
0.0633744
0.0770979
0.0511169
0.0411384
0.0362224
0.0333925
0.0316435
0.0305274
0.0298072
0.0293366
0.0290185
0.0287716
0.0285264
0.0281761
0.0277568
0.026983
0.0262427
0.0241107
0.0662048
0.0203758
0.312421
0.264404
0.122014
0.101403
0.116376
0.131012
0.128938
0.109785
0.101766
0.105296
0.115514
0.129486
0.144754
0.158714
0.169778
0.178112
0.185462
0.193714
0.203805
0.214915
0.224854
0.230854
0.2315
0.227843
0.222314
0.216261
0.210093
0.203798
0.197561
0.191563
0.18609
0.180917
0.176507
0.171817
0.169141
0.163699
0.163454
0.00967465
0.00993002
0.0102157
0.0105173
0.0109189
0.0114296
0.012055
0.0128003
0.0136634
0.0146299
0.0156824
0.0168116
0.0180229
0.0193423
0.0208221
0.0225558
0.0247036
0.0275164
0.0314679
0.0376027
0.0487994
0.0776488
0.0850754
0.0551689
0.0448008
0.0396744
0.0367029
0.0348399
0.0336134
0.0327728
0.0321445
0.0316289
0.0311325
0.0305336
0.0297227
0.0288568
0.0281932
0.0257459
0.078861
0.0264773
0.0252743
0.274279
0.142024
0.122519
0.158318
0.115447
0.126401
0.171158
0.147095
0.136223
0.142484
0.158056
0.177473
0.19485
0.207536
0.216727
0.223872
0.229636
0.233065
0.232554
0.227751
0.22074
0.213594
0.207173
0.201285
0.195645
0.190125
0.184908
0.179881
0.175498
0.170925
0.168219
0.163054
0.162458
0.00610734
0.00617678
0.00626251
0.00634077
0.00656326
0.00694472
0.00748214
0.00821554
0.0091463
0.0102513
0.0114663
0.0127862
0.0141638
0.0155888
0.0170489
0.0185455
0.0200985
0.021745
0.0235498
0.0256249
0.0281611
0.0314722
0.0361705
0.0436555
0.0581492
0.102799
0.0856208
0.0580345
0.0480434
0.0429272
0.0398858
0.0379147
0.0365534
0.0355339
0.0346871
0.0338374
0.0329686
0.0318138
0.0303946
0.0291728
0.0250056
0.0683983
0.0272379
0.032382
0.296
0.167654
0.149781
0.146314
0.0952923
0.0997595
0.138884
0.205292
0.179593
0.175813
0.190446
0.210364
0.222631
0.225951
0.22647
0.226053
0.223623
0.218801
0.212343
0.205542
0.199145
0.193339
0.188
0.183096
0.178399
0.174227
0.169867
0.167224
0.162312
0.161379
0.00515063
0.00576355
0.00654384
0.00716827
0.00772806
0.00845056
1.8856
0.0111523
0.0131451
0.0152526
0.00935803
0.00936657
0.00829708
0.00997799
0.0116778
0.013461
0.0152569
0.0170332
0.0188107
0.0206209
0.0224912
0.0244718
0.0266447
0.029146
0.0322095
0.0362273
0.0420197
0.0515635
0.0716598
0.148926
0.0838569
0.0605868
0.051209
0.0461542
0.0430332
0.0409127
0.0393404
0.0380603
0.0368464
0.0356285
0.0340981
0.0322402
0.0304769
0.0245237
0.0783748
0.0299916
0.038927
0.127323
0.0985829
0.298855
0.161642
0.0957922
0.090721
0.113435
0.174144
0.232249
0.218789
0.225377
0.234368
0.227318
0.214301
0.205368
0.200523
0.197501
0.194551
0.190908
0.186535
0.181841
0.177082
0.172807
0.168495
0.165954
0.161324
0.160164
0.582277
0.605786
0.44498
0.33942
0.296033
0.304081
0.452935
0.401025
0.212243
0.268486
0.0406551
0.0270656
0.0257314
0.016487
0.0182164
0.30477
0.0436801
0.00868984
0.0116022
0.0142163
0.016443
0.0186067
0.0207514
0.0229017
0.0251187
0.0274779
0.0300862
0.0331154
0.0368608
0.0418265
0.0491436
0.0617427
0.0916621
0.169806
0.0831198
0.0634112
0.0545454
0.049489
0.0461951
0.0438291
0.0419601
0.0402596
0.0386071
0.036638
0.0343024
0.0319356
0.0231724
0.0940144
0.0283585
0.0984969
1.10942
0.180511
0.208213
0.21533
0.104888
0.0888915
0.101308
0.138143
0.207996
0.250465
0.249363
0.236901
0.214612
0.196193
0.18564
0.180755
0.178609
0.177
0.174653
0.171608
0.167644
0.165075
0.160368
0.158767
0.00718309
0.00744052
0.00771191
0.00801298
0.00836885
0.00881271
0.00933981
0.00995798
0.0107452
0.0116739
0.0135208
0.0156417
0.0197261
0.0285535
0.089269
0.229207
0.272998
0.0675555
0.02153
0.0230145
0.026971
0.0197333
0.0111622
0.0143151
0.0173439
0.0201023
0.0227194
0.0252948
0.027934
0.030751
0.0338895
0.0375739
0.0421789
0.04839
0.0577883
0.074899
0.123536
0.143441
0.0840188
0.0667179
0.0581543
0.0529563
0.0493866
0.0466692
0.0443088
0.0421019
0.0396329
0.0371463
0.0346491
0.0278486
0.0945168
0.0463196