/*--------------------------------*- C++ -*----------------------------------*\
| =========                 |                                                 |
| \\      /  F ield         | OpenFOAM: The Open Source CFD Toolbox           |
|  \\    /   O peration     | Version:  2312                                  |
|   \\  /    A nd           | Website:  www.openfoam.com                      |
|    \\/     M anipulation  |                                                 |
\*---------------------------------------------------------------------------*/
FoamFile
{
    version     2.0;
    format      ascii;
    arch        "LSB;label=32;scalar=64";
    class       volSymmTensorField;
    location    "250";
    object      turbulenceProperties:devReff;
}
// * * * * * * * * * * * * * * * * * * * * * * * * * * * * * * * * * * * * * //

dimensions      [0 2 -2 0 0 0 0];

internalField   nonuniform List<symmTensor> 
11040
(
(0.136865 0.27166 8.20451e-21 -0.163259 6.18876e-20 0.0263941)
(0.619177 0.312632 -8.12776e-20 -0.708883 7.76574e-19 0.089706)
(1.19386 0.039832 8.61727e-19 -1.30564 9.08528e-19 0.111785)
(1.63964 -0.408302 1.87493e-19 -1.71982 -1.09435e-18 0.080184)
(1.9944 -0.944613 -5.01469e-20 -2.02196 -8.86868e-20 0.027558)
(3.15867 -2.25431 -3.81899e-18 -3.12225 -1.36474e-17 -0.0364135)
(2.27438 -2.59509 -4.81903e-18 -2.14143 -8.55853e-17 -0.132958)
(1.42178 -2.81318 5.99827e-17 -1.079 -1.3586e-16 -0.342775)
(1.0859 -2.91156 1.96593e-17 -0.651941 9.63424e-17 -0.433958)
(0.99242 -3.37877 -1.47774e-17 -0.515468 5.76445e-17 -0.476952)
(1.23243 -4.75858 -2.32608e-17 -0.781895 6.70521e-17 -0.450531)
(1.39611 -5.74763 -2.29662e-17 -1.08065 3.85602e-18 -0.315462)
(1.45754 -6.4564 -3.75882e-18 -1.26262 -1.66117e-17 -0.19492)
(1.44208 -7.13026 8.44328e-19 -1.31991 -9.61739e-18 -0.12217)
(1.34827 -7.7947 2.38597e-18 -1.26441 -1.14218e-18 -0.0838673)
(1.16898 -8.3578 1.76284e-20 -1.10641 -2.49531e-18 -0.0625712)
(0.915869 -8.76172 2.10001e-18 -0.866575 -1.97685e-18 -0.0492939)
(0.611798 -8.98676 -1.46834e-20 -0.571011 3.2256e-19 -0.0407877)
(0.279833 -9.04038 -9.13257e-19 -0.244394 -3.65125e-19 -0.0354386)
(-0.0558289 -8.94111 -1.75679e-19 0.0886675 -3.92661e-19 -0.0328386)
(-0.377965 -8.6769 4.68415e-19 0.409369 -7.83397e-19 -0.0314041)
(-0.640688 -8.27521 1.63469e-18 0.671721 2.36946e-18 -0.0310328)
(-0.81959 -7.83454 2.52689e-19 0.850854 1.507e-18 -0.0312638)
(-0.9482 -7.40529 1.09461e-19 0.976261 9.59353e-18 -0.0280618)
(-1.04361 -6.97849 -3.34588e-18 1.06811 -3.10041e-18 -0.024496)
(-1.10841 -6.54151 2.08775e-18 1.13076 -2.94941e-18 -0.0223515)
(-1.14598 -6.09213 -4.45315e-19 1.16667 -4.86454e-18 -0.0206852)
(-1.15851 -5.63314 4.88297e-19 1.17775 9.85004e-20 -0.0192418)
(-1.14775 -5.16473 1.8012e-19 1.16571 -1.67068e-18 -0.0179634)
(-1.11468 -4.6864 2.6158e-18 1.13156 1.76823e-18 -0.0168798)
(-1.06068 -4.19879 3.07199e-19 1.07656 4.6696e-18 -0.0158805)
(-0.987218 -3.70399 1.01159e-19 1.00211 -2.14559e-18 -0.0148961)
(-0.896095 -3.20574 3.45197e-18 0.909949 6.47821e-18 -0.0138539)
(-0.788212 -2.70361 -5.79111e-19 0.800661 -5.91732e-20 -0.0124495)
(-0.655416 -2.16697 2.38702e-18 0.665256 2.46331e-18 -0.00983933)
(-0.461891 -1.48119 -7.77159e-20 0.468721 1.04211e-18 -0.00682937)
(-0.331403 -1.03587 -1.74192e-19 0.336962 -9.27616e-21 -0.00555826)
(-0.248927 -0.769231 -2.539e-23 0.255027 -7.65737e-25 -0.00609996)
(-0.170369 -0.52224 -4.99781e-22 0.174223 -7.98567e-23 -0.00385426)
(-0.0912172 -0.378381 -2.80641e-20 0.104712 -1.49701e-22 -0.0134948)
(-0.244034 -0.00753569 -2.94407e-21 0.262887 -2.00274e-19 -0.0188524)
(0.0264756 -0.0355407 1.5276e-21 -0.0184331 2.84532e-22 -0.0080425)
(0.0120458 -0.0449935 1.00876e-19 0.00537729 -1.15501e-19 -0.0174231)
(0.0387536 -0.066248 -3.83516e-19 -0.00641975 -6.59427e-19 -0.0323339)
(0.233489 -0.145083 -7.71843e-19 -0.183462 -1.56596e-19 -0.0500264)
(0.648213 -0.327592 1.17237e-19 -0.625636 -3.67497e-19 -0.0225767)
(1.68326 -1.03821 -3.36597e-18 -1.71655 -1.93892e-18 0.0332907)
(2.9844 -2.35049 -1.46224e-17 -3.13783 3.15668e-17 0.153424)
(4.14357 -3.86244 -5.13849e-17 -4.594 1.70417e-16 0.450437)
(5.28148 -6.12999 2.20166e-17 -5.99012 -1.05016e-16 0.708646)
(6.14899 -9.13054 2.73286e-17 -7.05573 -1.1293e-16 0.906741)
(5.76194 -10.965 3.4376e-17 -6.61447 -1.60825e-16 0.852527)
(4.62191 -11.0314 2.93776e-17 -5.25696 -2.33619e-18 0.635053)
(3.41717 -10.1015 -4.25289e-18 -3.844 4.60062e-17 0.426831)
(2.43788 -8.9062 -2.92892e-18 -2.71737 3.49263e-17 0.27949)
(1.71658 -7.79149 -7.54713e-18 -1.90009 1.27871e-18 0.183512)
(1.19184 -6.83726 -2.38271e-18 -1.31434 4.36846e-18 0.122498)
(0.802007 -6.03183 -1.95751e-18 -0.887455 3.58696e-19 0.085448)
(0.508816 -5.35607 8.46772e-19 -0.574102 4.11412e-18 0.0652859)
(0.287566 -4.79301 -9.28295e-19 -0.344809 1.50206e-18 0.0572433)
(0.121214 -4.31669 3.44376e-19 -0.177795 5.77169e-19 0.0565816)
(-0.00522899 -3.91759 -2.14989e-18 -0.0553616 1.92834e-18 0.0605906)
(-0.096719 -3.59756 -2.47527e-18 0.0323413 -7.2403e-18 0.0643777)
(-0.160783 -3.32163 4.18944e-18 0.0963349 -2.98021e-19 0.0644477)
(-0.213266 -3.06954 5.07045e-18 0.152621 -1.47446e-17 0.0606451)
(-0.253905 -2.84842 3.80307e-18 0.198896 7.29632e-18 0.0550097)
(-0.282627 -2.66387 -4.96618e-18 0.232683 2.66666e-18 0.049944)
(-0.303385 -2.51053 1.51263e-18 0.257155 8.94742e-18 0.0462295)
(-0.318309 -2.38012 -5.1075e-19 0.274883 -9.2115e-20 0.0434262)
(-0.32833 -2.2667 -4.61165e-18 0.287096 1.95299e-18 0.0412344)
(-0.334063 -2.16661 -4.18194e-18 0.294572 -8.53831e-18 0.0394911)
(-0.336325 -2.07745 -5.39608e-18 0.298239 -8.45292e-18 0.0380866)
(-0.335807 -1.99733 -7.50108e-18 0.298919 -1.11841e-19 0.0368876)
(-0.333006 -1.92388 -7.16758e-18 0.297329 -1.81041e-17 0.0356763)
(-0.328122 -1.85325 9.57252e-19 0.294124 2.21985e-18 0.0339978)
(-0.32087 -1.77534 -2.95653e-19 0.290293 -8.32151e-18 0.0305762)
(-0.304647 -1.66491 -5.66271e-18 0.278396 -4.82354e-18 0.0262514)
(-0.289327 -1.55698 3.36405e-19 0.263996 3.16579e-20 0.025331)
(-0.269039 -1.45528 9.50725e-20 0.246223 5.24165e-19 0.0228153)
(-0.282611 -1.37625 8.28587e-23 0.252823 4.30295e-22 0.0297881)
(-0.217812 -1.27165 1.02597e-19 0.226491 -8.4033e-20 -0.00867843)
(-0.64909 -2.05275 -1.58133e-18 0.361631 1.97902e-18 0.287459)
(0.010613 -0.021877 -1.23303e-20 -0.0110638 -3.54346e-20 0.00045072)
(-0.0116445 -0.0144042 -1.16669e-19 0.00791111 -1.21479e-19 0.00373343)
(-0.0165909 -0.00270985 5.7981e-20 0.0120649 1.9353e-19 0.00452604)
(-0.0123296 0.000538394 9.73582e-20 0.00904062 8.9955e-20 0.00328903)
(0.00170658 -0.00604854 -2.39749e-19 -0.00304586 -1.3799e-19 0.00133928)
(0.0641878 -0.0519846 -1.85703e-19 -0.0625926 4.68808e-19 -0.00159518)
(0.272336 -0.237805 6.81239e-19 -0.269626 1.34444e-18 -0.00270945)
(0.622914 -0.640649 1.02862e-18 -0.629384 -2.37746e-18 0.00647036)
(1.05524 -1.31444 -1.9679e-18 -1.07618 3.44541e-18 0.0209493)
(1.48103 -2.23338 4.71063e-19 -1.50856 -1.19788e-18 0.0275338)
(1.85641 -3.36182 -3.16227e-18 -1.87234 6.9559e-18 0.0159298)
(2.14501 -4.64358 -1.05141e-17 -2.14229 -1.89519e-17 -0.00272596)
(2.30607 -5.9556 4.33496e-18 -2.295 -9.22838e-18 -0.0110749)
(2.30539 -7.12412 1.35905e-18 -2.30155 -5.16318e-18 -0.00383936)
(2.12947 -7.97021 4.26374e-18 -2.14162 6.22675e-18 0.0121413)
(1.80172 -8.37001 4.42715e-18 -1.8294 1.19793e-18 0.0276765)
(1.38379 -8.30796 1.39418e-18 -1.42058 8.97752e-19 0.0367852)
(0.953594 -7.87839 6.17582e-18 -0.989678 4.12085e-19 0.036084)
(0.572414 -7.24458 1.30387e-18 -0.598747 -5.86367e-19 0.0263336)
(0.268293 -6.558 -1.0567e-18 -0.279028 -1.54804e-18 0.0107351)
(0.0364044 -5.90298 4.3202e-18 -0.0326297 2.6816e-18 -0.00377465)
(-0.129216 -5.34251 1.84875e-18 0.144324 2.98305e-18 -0.0151078)
(-0.242063 -4.8987 -3.81329e-18 0.264081 -4.93931e-18 -0.0220175)
(-0.325055 -4.53323 -7.78707e-18 0.347374 -1.21719e-17 -0.0223193)
(-0.384355 -4.21992 -7.93797e-18 0.403682 -8.46816e-18 -0.0193269)
(-0.423968 -3.95015 8.97991e-18 0.440191 1.06748e-18 -0.0162229)
(-0.449296 -3.7142 -7.0638e-19 0.462731 2.20287e-19 -0.0134344)
(-0.463792 -3.50434 3.21203e-19 0.47499 -2.5602e-18 -0.0111978)
(-0.469609 -3.31558 6.2758e-18 0.479187 7.69604e-18 -0.00957796)
(-0.468442 -3.14542 -5.42289e-18 0.477003 9.04326e-18 -0.00856093)
(-0.461867 -2.9923 1.27592e-17 0.4698 2.35065e-18 -0.00793306)
(-0.451154 -2.85518 -1.23744e-18 0.458663 1.40531e-17 -0.00750915)
(-0.437374 -2.73308 1.57763e-18 0.444598 6.57296e-18 -0.00722323)
(-0.421211 -2.62366 1.02934e-17 0.428236 -7.35124e-19 -0.00702502)
(-0.404264 -2.52475 -8.68833e-18 0.411181 4.62497e-19 -0.00691668)
(-0.386099 -2.43313 -8.56645e-19 0.392733 3.54316e-18 -0.00663376)
(-0.373644 -2.34916 3.02673e-19 0.37801 1.67922e-20 -0.00436565)
(-0.351553 -2.26086 6.96746e-18 0.357725 -6.56729e-19 -0.00617159)
(-0.380651 -2.1791 -2.31454e-19 0.374924 -7.2467e-21 0.00572636)
(-0.272145 -1.98191 5.19581e-18 0.324586 -6.33375e-19 -0.0524407)
(-0.442456 -2.23302 2.12238e-18 0.400673 -1.99911e-18 0.041783)
(0.00796876 -0.0152858 1.01845e-20 -0.00816244 2.4162e-20 0.000193678)
(-0.00345782 -0.0154514 1.71767e-20 0.00370643 7.12855e-20 -0.000248618)
(-0.0100564 -0.00915849 -5.84507e-20 0.0103245 -8.71181e-20 -0.000268075)
(-0.0114099 -0.00316636 -6.27724e-20 0.011806 -4.09611e-20 -0.000396094)
(-0.0101718 3.76646e-05 8.77005e-20 0.0106736 7.01658e-20 -0.000501749)
(-0.00680715 0.000900771 7.72565e-20 0.00728936 5.34554e-20 -0.000482216)
(-0.00347586 0.000139682 -1.284e-20 0.00404039 -4.41525e-20 -0.000564528)
(0.000240935 -0.0030367 5.33428e-21 0.00079492 -8.21056e-21 -0.00103586)
(0.0110474 -0.0165952 -4.05978e-20 -0.00878781 5.42357e-20 -0.00225963)
(0.0340574 -0.0505579 -4.84768e-19 -0.0307825 3.82436e-20 -0.0032749)
(0.0640091 -0.106525 7.47477e-20 -0.0611875 2.52801e-19 -0.00282155)
(0.0970139 -0.187671 5.76189e-19 -0.0956299 1.14902e-18 -0.00138403)
(0.140794 -0.319928 -1.57363e-20 -0.140852 -2.01769e-20 5.83341e-05)
(0.208831 -0.556433 1.88193e-18 -0.210073 -1.93578e-19 0.00124196)
(0.307687 -0.957272 -2.75987e-19 -0.309528 -8.16824e-19 0.00184099)
(0.429073 -1.56219 -1.63322e-18 -0.430538 -2.34218e-18 0.00146505)
(0.545324 -2.3557 -3.69985e-18 -0.545857 -1.20637e-19 0.000532682)
(0.616805 -3.25133 8.76521e-19 -0.617048 -1.81779e-18 0.000243358)
(0.60813 -4.11313 -1.92345e-18 -0.610522 -1.49664e-18 0.00239208)
(0.508386 -4.80406 -8.48496e-19 -0.515688 6.90322e-19 0.00730154)
(0.334506 -5.23789 -1.44541e-18 -0.348566 -2.22292e-18 0.0140597)
(0.13477 -5.40058 -3.69481e-18 -0.152794 -2.3324e-19 0.0180244)
(-0.0418279 -5.35322 -1.17431e-19 0.0250351 1.97117e-18 0.0167927)
(-0.184389 -5.18251 -8.45173e-18 0.169861 1.95808e-18 0.0145276)
(-0.291379 -4.95534 -2.84263e-18 0.280254 1.00756e-17 0.0111248)
(-0.366592 -4.71505 -1.80016e-17 0.360589 -1.82743e-18 0.00600255)
(-0.418393 -4.48434 2.07862e-18 0.417276 1.91471e-18 0.00111733)
(-0.453228 -4.27224 -8.2604e-18 0.455755 2.63821e-18 -0.00252729)
(-0.475489 -4.08156 9.72519e-18 0.480228 -5.72092e-18 -0.00473925)
(-0.487779 -3.91191 1.44486e-17 0.493539 -7.56128e-19 -0.00575971)
(-0.49183 -3.7611 -6.93071e-18 0.49765 -5.85075e-18 -0.00582018)
(-0.48881 -3.62634 2.87759e-17 0.49405 -4.33056e-18 -0.00524043)
(-0.479634 -3.50503 -1.30041e-18 0.484039 -1.3539e-19 -0.00440533)
(-0.465349 -3.39405 1.5397e-18 0.468948 -4.19976e-18 -0.00359935)
(-0.447954 -3.29171 6.96624e-19 0.450795 3.29392e-18 -0.00284141)
(-0.427687 -3.19578 -2.61067e-18 0.430355 1.43123e-18 -0.00266782)
(-0.412973 -3.10726 1.86396e-19 0.414046 -4.27425e-20 -0.00107373)
(-0.386215 -3.0151 2.11011e-18 0.390998 -1.79363e-18 -0.00478282)
(-0.416889 -2.93315 -7.3787e-20 0.408594 7.39534e-21 0.00829502)
(-0.280445 -2.72757 2.24229e-18 0.334067 3.54308e-20 -0.0536219)
(-0.303105 -2.84869 1.86793e-20 0.213342 2.11218e-19 0.089763)
(0.00599778 -0.010353 8.46828e-22 -0.00600384 1.21451e-23 6.05561e-06)
(-0.00120793 -0.0114785 2.06778e-20 0.00131163 1.75501e-20 -0.000103698)
(-0.00642619 -0.00841172 9.4224e-20 0.00652517 1.14568e-19 -9.89826e-05)
(-0.00823069 -0.00405408 1.09782e-19 0.00830972 7.82324e-20 -7.90299e-05)
(-0.00802748 -0.000516334 -1.42696e-19 0.00803856 -1.08908e-19 -1.10714e-05)
(-0.00704473 0.00175459 7.81558e-20 0.00699022 1.39571e-20 5.4514e-05)
(-0.00545893 0.00284863 -7.02222e-21 0.00539979 5.37534e-21 5.91348e-05)
(-0.00374067 0.00310374 6.50701e-21 0.00370904 -5.75183e-21 3.16304e-05)
(-0.00236009 0.00300941 4.29905e-20 0.00235979 2.16457e-20 3.00608e-07)
(-0.00130001 0.0027118 7.07484e-20 0.00132715 2.68044e-20 -2.71419e-05)
(-0.000544191 0.0022611 2.92665e-20 0.000591754 -2.06908e-21 -4.75635e-05)
(-0.000207374 0.00390101 -8.56695e-22 0.000355703 -3.2188e-20 -0.000148329)
(0.000149029 0.00132983 -3.70131e-21 -6.59404e-05 9.05449e-22 -8.30884e-05)
(0.000317591 0.000822269 -3.82526e-20 -0.00022871 -2.80847e-20 -8.88808e-05)
(0.000375264 7.73218e-05 6.164e-21 -0.000310612 1.35424e-20 -6.46519e-05)
(0.000917186 -0.00119522 -4.57175e-20 -0.000819003 7.17342e-21 -9.81825e-05)
(0.006776 -0.0164042 1.33649e-19 -0.00632972 1.342e-19 -0.000446278)
(0.0205033 -0.0697976 -2.06043e-20 -0.0196996 -8.64191e-20 -0.00080365)
(0.0448795 -0.199519 -3.50507e-21 -0.0438819 1.31254e-19 -0.000997588)
(0.0798286 -0.457145 2.8662e-20 -0.078708 1.27969e-19 -0.00112058)
(0.116556 -0.888485 7.24778e-19 -0.115458 3.30582e-19 -0.001098)
(0.134423 -1.45941 2.00566e-18 -0.133416 6.94289e-19 -0.00100693)
(0.120673 -2.06343 -4.83185e-19 -0.118844 -1.52078e-19 -0.00182882)
(0.0742868 -2.62317 -4.58097e-18 -0.0725952 1.86272e-18 -0.00169165)
(0.00337722 -3.09087 1.3104e-17 -0.00348693 -1.39298e-18 0.000109709)
(-0.0799314 -3.44794 8.13729e-18 0.0774638 5.62237e-18 0.00246754)
(-0.165405 -3.69798 5.96515e-18 0.160408 -1.54164e-18 0.00499654)
(-0.244686 -3.85547 7.41042e-18 0.237507 2.08323e-18 0.00717842)
(-0.31233 -3.9403 -8.65589e-18 0.30384 -2.64904e-18 0.00849023)
(-0.365468 -3.97242 -1.5475e-17 0.356883 -2.463e-18 0.00858464)
(-0.403628 -3.96894 4.01364e-19 0.396046 1.96013e-18 0.00758262)
(-0.427856 -3.94309 -1.51601e-17 0.422044 -6.30005e-18 0.00581196)
(-0.439829 -3.90438 1.22668e-18 0.436214 -4.37831e-20 0.00361473)
(-0.441927 -3.85866 2.68366e-18 0.440509 -1.57075e-18 0.00141806)
(-0.436918 -3.80979 3.62163e-19 0.437177 1.05582e-19 -0.000258437)
(-0.425832 -3.7586 1.18297e-17 0.427631 -1.00935e-18 -0.00179859)
(-0.41684 -3.70747 -6.64901e-19 0.417785 -7.70344e-19 -0.000944706)
(-0.39322 -3.64702 -1.01786e-17 0.398481 9.89176e-19 -0.00526041)
(-0.420601 -3.59244 1.77503e-19 0.410452 1.50303e-20 0.010149)
(-0.277026 -3.44684 2.6727e-18 0.330477 -9.19673e-20 -0.0534516)
(-0.337164 -3.47519 9.79012e-18 0.222461 -8.83332e-19 0.114703)
(0.00413054 -0.00700536 3.94195e-23 -0.00418604 -5.18697e-22 5.55001e-05)
(5.06377e-05 -0.0082041 -2.58097e-22 -1.63264e-05 -3.69532e-21 -3.43112e-05)
(-0.00371477 -0.00703119 -2.44654e-20 0.00367949 -5.2751e-20 3.52719e-05)
(-0.00586838 -0.00439806 -3.90878e-20 0.0057737 -5.13672e-20 9.4679e-05)
(-0.00634254 -0.00170522 9.17624e-20 0.00626396 9.81212e-20 7.8577e-05)
(-0.00594286 0.000407883 -9.08838e-20 0.00589797 -6.9128e-20 4.48939e-05)
(-0.00518195 0.00197476 4.73352e-20 0.00513855 2.11715e-20 4.34061e-05)
(-0.00411669 0.00300479 -7.07215e-20 0.00405949 -2.33457e-20 5.72041e-05)
(-0.00291312 0.00344202 -5.38055e-22 0.00286166 -5.06791e-21 5.14652e-05)
(-0.00183077 0.00339323 -4.86425e-20 0.00180163 -4.75069e-20 2.914e-05)
(-0.00102288 0.00307479 -2.67944e-20 0.0010133 -1.00017e-20 9.58392e-06)
(-0.000508965 0.00267559 4.52638e-21 0.000509429 -1.36783e-21 -4.6473e-07)
(-0.000235133 0.00235655 9.8248e-21 0.000237099 5.82421e-21 -1.96566e-06)
(-9.97009e-05 0.00206142 -2.16541e-20 9.82863e-05 6.14372e-21 1.41458e-06)
(-3.14567e-05 0.00187067 4.55579e-20 2.75977e-05 2.66601e-23 3.85899e-06)
(1.83717e-05 0.00170224 6.64073e-21 -2.04355e-05 6.19438e-21 2.06377e-06)
(8.63891e-05 0.0020051 9.97978e-21 -8.3162e-05 -7.73451e-21 -3.22719e-06)
(0.00012307 0.0014177 -9.06706e-21 -0.000115263 1.55361e-22 -7.80651e-06)
(0.00018125 0.00115808 7.30841e-22 -0.000169476 -2.75391e-21 -1.17739e-05)
(0.000255095 0.000837396 2.21159e-22 -0.000240291 9.98052e-22 -1.48044e-05)
(0.00256175 0.00236714 1.33002e-20 -0.00244562 -5.98996e-21 -0.000116135)
(0.0084842 -0.00954363 -8.93229e-20 -0.00823212 -7.61657e-20 -0.000252083)
(0.0169089 -0.0541192 -7.77592e-22 -0.0165586 -6.07333e-20 -0.0003503)
(0.0262381 -0.150652 -3.73559e-19 -0.0258449 3.08823e-19 -0.000393253)
(0.0334767 -0.312949 -2.60754e-18 -0.033041 -1.00062e-18 -0.000435706)
(0.0355152 -0.54608 7.08058e-19 -0.0347424 -5.69274e-19 -0.000772838)
(0.0293328 -0.844488 -2.28621e-18 -0.0278493 -6.17348e-19 -0.00148357)
(0.0129722 -1.19344 -5.02986e-20 -0.0106018 -1.32508e-18 -0.0023704)
(-0.0140174 -1.57303 -8.95941e-19 0.0171208 1.03689e-18 -0.00310339)
(-0.0504821 -1.96187 5.10865e-18 0.0538639 2.27286e-18 -0.00338175)
(-0.0940191 -2.34024 -8.88255e-19 0.0969666 4.21747e-19 -0.0029475)
(-0.141399 -2.69234 1.15925e-18 0.143135 2.61462e-18 -0.00173619)
(-0.188724 -3.00693 -4.85137e-19 0.188695 -5.77382e-19 2.97438e-05)
(-0.232738 -3.27802 -1.28195e-17 0.23072 1.74213e-19 0.00201871)
(-0.270721 -3.50294 1.60446e-18 0.266843 -8.00113e-19 0.00387785)
(-0.299639 -3.68037 -3.81918e-19 0.295029 -5.82806e-19 0.00460943)
(-0.323245 -3.81368 -1.54311e-17 0.317376 1.71142e-18 0.00586823)
(-0.326841 -3.90111 6.20709e-19 0.326396 8.38376e-19 0.000445395)
(-0.36647 -3.95896 2.45126e-19 0.352971 1.46161e-19 0.0134988)
(-0.236505 -3.94476 -1.00562e-17 0.286516 9.2574e-19 -0.0500109)
(-0.416189 -3.98695 -8.86301e-18 0.304794 1.35371e-18 0.111395)
(0.00291127 -0.00483479 -5.12504e-21 -0.00294812 -3.23206e-21 3.68516e-05)
(0.000539106 -0.00577673 2.80421e-20 -0.000515006 2.09015e-20 -2.41002e-05)
(-0.00193224 -0.00558888 -2.97769e-20 0.00194892 -1.70191e-20 -1.66823e-05)
(-0.00389177 -0.00431281 -6.94453e-21 0.00391065 9.76819e-21 -1.88743e-05)
(-0.00487541 -0.00249725 8.74922e-21 0.00491346 -6.51054e-21 -3.80514e-05)
(-0.0049748 -0.000740354 2.70997e-20 0.0050232 2.6081e-20 -4.84016e-05)
(-0.00454141 0.000703827 -2.51377e-20 0.00457949 -3.18692e-20 -3.80756e-05)
(-0.00381047 0.00180255 7.34754e-20 0.00382779 4.42507e-20 -1.73259e-05)
(-0.00289617 0.00252557 2.73339e-20 0.00289648 5.02556e-21 -3.068e-07)
(-0.0019375 0.00284521 -3.93861e-20 0.00192922 7.39501e-21 8.27704e-06)
(-0.00108961 0.00281248 3.33439e-20 0.00107839 6.83214e-21 1.12166e-05)
(-0.000458734 0.00254379 -3.06688e-20 0.00044854 -8.1588e-21 1.01934e-05)
(-7.31502e-05 0.00216951 2.9382e-20 6.65208e-05 1.71737e-20 6.62945e-06)
(0.000118288 0.00186806 -6.7164e-21 -0.000122318 -5.68927e-21 4.02961e-06)
(0.000205413 0.00164414 -4.69735e-20 -0.000208719 -2.63721e-20 3.30618e-06)
(0.000244691 0.0014548 1.55117e-21 -0.000247271 9.05156e-21 2.57933e-06)
(0.000263781 0.00129641 -1.8631e-20 -0.000265266 -2.05711e-21 1.48586e-06)
(0.0002716 0.00116214 8.29347e-21 -0.000272128 2.23526e-21 5.27669e-07)
(0.000270649 0.00103834 -1.42427e-20 -0.000270601 -2.82485e-21 -4.78139e-08)
(0.00026328 0.000919189 3.907e-21 -0.000262419 -1.81721e-21 -8.61336e-07)
(0.00033266 0.00104719 1.11814e-21 -0.000330479 3.56999e-21 -2.18029e-06)
(0.0010635 0.00293293 -1.05664e-20 -0.00105478 -1.70164e-21 -8.71259e-06)
(0.000581313 0.00136915 -9.27978e-21 -0.0005749 -1.62108e-21 -6.41261e-06)
(0.000520381 0.00098999 1.42029e-22 -0.0005145 1.00702e-21 -5.8815e-06)
(0.000612839 0.000810058 -9.34781e-21 -0.000608211 5.64468e-21 -4.62846e-06)
(0.00345815 0.0019122 6.29276e-20 -0.00344792 3.95106e-22 -1.02374e-05)
(0.00748013 -0.00348953 -8.426e-20 -0.00748978 2.15841e-20 9.65184e-06)
(0.0124121 -0.0228536 -3.67771e-19 -0.0124741 1.6859e-20 6.20595e-05)
(0.0178358 -0.0670576 6.91329e-20 -0.0179586 1.1577e-19 0.000122852)
(0.0227357 -0.149371 1.24108e-18 -0.0228371 -2.02303e-19 0.000101409)
(0.0258116 -0.283648 1.27189e-18 -0.0256711 -3.52711e-19 -0.000140489)
(0.0256366 -0.482111 2.76279e-18 -0.0249131 -3.30379e-19 -0.000723507)
(0.0209721 -0.75164 -3.22032e-18 -0.0192686 2.88515e-19 -0.0017034)
(0.0107611 -1.09323 -7.22172e-18 -0.00782224 1.44121e-18 -0.00293885)
(-0.00574558 -1.49868 -8.35532e-18 0.0097667 6.09381e-19 -0.00402112)
(-0.0279761 -1.9483 9.7618e-18 0.0327494 -6.22955e-19 -0.00477328)
(-0.0575143 -2.41459 1.00127e-17 0.0611113 -3.55623e-19 -0.003597)
(-0.0830585 -2.86804 1.18803e-17 0.0883177 -8.28995e-19 -0.00525919)
(-0.144214 -3.28455 1.25367e-17 0.13528 -9.63072e-19 0.00893481)
(-0.0646635 -3.61464 -3.53728e-20 0.102526 -5.04105e-20 -0.0378627)
(-0.368498 -3.96177 -1.30359e-17 0.265446 6.71847e-19 0.103052)
(0.00203867 -0.00338847 -2.01082e-21 -0.00207004 -1.61054e-21 3.13653e-05)
(0.000609963 -0.00404665 -1.6357e-20 -0.000600821 -1.25581e-20 -9.14267e-06)
(-0.000932791 -0.00416386 1.8389e-20 0.000935892 1.80754e-20 -3.10138e-06)
(-0.0023939 -0.00362293 2.34347e-20 0.00238819 1.79967e-20 5.70634e-06)
(-0.00342844 -0.00254698 4.4343e-20 0.00342234 2.3594e-20 6.09563e-06)
(-0.00388792 -0.00126621 -4.9866e-20 0.00388691 -4.2276e-20 1.00697e-06)
(-0.00384939 -5.16311e-05 -7.95448e-20 0.0038505 -3.40592e-20 -1.11137e-06)
(-0.00344995 0.000961791 -4.47562e-20 0.00344706 -2.86831e-20 2.89522e-06)
(-0.00280609 0.00170376 8.53147e-21 0.00279686 4.46798e-21 9.23335e-06)
(-0.00204192 0.00213226 4.09824e-20 0.00202954 2.90546e-20 1.23758e-05)
(-0.00129155 0.0022561 -7.95406e-20 0.00128082 -3.21018e-20 1.07384e-05)
(-0.000664993 0.00214093 1.24093e-20 0.000658494 7.58695e-21 6.49842e-06)
(-0.00021956 0.0018919 6.83685e-20 0.000217112 6.09127e-21 2.44838e-06)
(5.3855e-05 0.0016168 -5.282e-20 -5.45484e-05 -1.26841e-20 6.93338e-07)
(0.000208304 0.0013768 -1.34142e-20 -0.000209999 9.41212e-21 1.69476e-06)
(0.000300775 0.00119378 6.37149e-20 -0.000304196 9.35404e-21 3.42022e-06)
(0.000363314 0.00104771 1.34937e-20 -0.000367626 -7.63485e-22 4.31199e-06)
(0.000404567 0.000917462 -1.09367e-20 -0.000408974 1.62099e-21 4.40771e-06)
(0.000438884 0.00082019 -8.77672e-21 -0.000443401 1.90817e-21 4.51722e-06)
(0.000443233 0.000707892 -1.48317e-20 -0.000447407 -1.15883e-21 4.1741e-06)
(0.000424099 0.00060052 2.37218e-20 -0.00042776 1.14928e-21 3.6613e-06)
(0.000389624 0.000508704 -6.9738e-21 -0.000392635 -7.62176e-23 3.01082e-06)
(0.000367132 0.000460604 -4.27383e-21 -0.000368709 7.19688e-22 1.57768e-06)
(0.000326278 0.000407979 4.60122e-23 -0.000326538 9.9034e-23 2.59854e-07)
(0.000326838 0.000413538 -3.91468e-21 -0.000326614 -5.34537e-22 -2.24491e-07)
(0.000387874 0.000491856 4.87323e-21 -0.000387208 4.8766e-23 -6.65853e-07)
(0.000312677 0.000386754 -4.15692e-21 -0.000311856 3.29906e-22 -8.20954e-07)
(0.00260322 0.00300215 5.97265e-21 -0.00259718 4.80634e-21 -6.04861e-06)
(0.00475186 0.00471295 1.23749e-19 -0.00475104 -1.35847e-20 -8.16118e-07)
(0.000303032 0.000217125 7.58678e-22 -0.000304147 -1.41156e-21 1.11462e-06)
(0.00203846 0.000559485 -1.47556e-19 -0.00205634 8.48949e-21 1.78813e-05)
(0.0055947 -0.00231748 -1.1134e-19 -0.00567566 -1.32582e-20 8.09581e-05)
(0.00987063 -0.0144926 2.73881e-19 -0.0100617 1.04765e-20 0.000191097)
(0.0152307 -0.046704 1.13159e-18 -0.0155543 -2.96434e-20 0.000323624)
(0.0213248 -0.116403 1.30189e-19 -0.0217104 1.24596e-19 0.00038561)
(0.0276064 -0.245242 1.58056e-19 -0.0277145 -9.88626e-20 0.000108074)
(0.0328159 -0.455208 -1.7081e-20 -0.0324506 -1.07664e-19 -0.000365285)
(0.0408972 -0.765031 3.57985e-19 -0.0380039 -2.07074e-19 -0.0028933)
(0.031595 -1.18337 -5.68151e-18 -0.0327344 3.20346e-19 0.00113944)
(0.0932042 -1.66164 1.28841e-19 -0.068335 -6.66925e-21 -0.0248692)
(-0.0989485 -2.34117 7.72323e-18 0.043058 -6.01856e-19 0.0558905)
(0.00143003 -0.00241032 1.45703e-21 -0.00145297 9.76447e-22 2.29456e-05)
(0.000533096 -0.00285197 -7.86539e-23 -0.000527638 8.04777e-22 -5.45777e-06)
(-0.000426434 -0.00302204 3.01593e-20 0.000428048 1.6918e-20 -1.61351e-06)
(-0.00142244 -0.00284518 1.59775e-21 0.00142113 -2.53902e-21 1.30837e-06)
(-0.00228331 -0.00229405 3.65299e-21 0.00228444 -3.91038e-21 -1.12894e-06)
(-0.00284668 -0.00148251 1.13575e-21 0.00285404 9.44626e-21 -7.36063e-06)
(-0.00306167 -0.000577464 3.39328e-20 0.00307373 2.67292e-20 -1.20591e-05)
(-0.0029595 0.000283589 -2.95337e-21 0.00297112 -2.48066e-21 -1.16253e-05)
(-0.00260262 0.00100155 1.01785e-21 0.00261003 1.45349e-20 -7.40374e-06)
(-0.00207569 0.00150515 8.1987e-20 0.00207882 2.24595e-20 -3.12393e-06)
(-0.00148349 0.00176654 6.99907e-21 0.00148489 8.61759e-21 -1.40196e-06)
(-0.000927038 0.00180891 -5.98304e-20 0.000928563 -1.51028e-20 -1.52423e-06)
(-0.00047792 0.00169608 -9.41715e-21 0.000479864 -1.68807e-20 -1.94446e-06)
(-0.000159989 0.00150934 1.53011e-20 0.000162139 1.59394e-20 -2.14983e-06)
(4.59952e-05 0.00131298 -1.83255e-20 -4.43978e-05 -8.3734e-21 -1.59738e-06)
(0.000177823 0.00113875 -1.58223e-20 -0.000177012 -1.08515e-20 -8.11186e-07)
(0.000267791 0.000991249 -2.51923e-20 -0.000267257 -3.52536e-21 -5.33852e-07)
(0.000335008 0.000866018 3.61778e-20 -0.000334264 6.65048e-21 -7.44436e-07)
(0.000387972 0.000754416 -9.17471e-21 -0.000387069 -7.47799e-22 -9.03153e-07)
(0.000434079 0.000656167 3.20899e-22 -0.000433157 3.37702e-21 -9.21546e-07)
(0.000473136 0.000564151 -1.19256e-21 -0.000472422 -7.34165e-21 -7.13797e-07)
(0.000487876 0.000464976 2.78448e-21 -0.000487654 3.84413e-21 -2.21843e-07)
(0.000479528 0.00037318 -2.66104e-21 -0.000479333 6.9125e-22 -1.94873e-07)
(0.000463301 0.000303805 -5.78509e-22 -0.000463008 -5.84822e-23 -2.93214e-07)
(0.000427276 0.000245355 -1.32629e-20 -0.000427343 8.23303e-22 6.72692e-08)
(0.000389772 0.000203444 9.1368e-21 -0.000390104 -1.36069e-22 3.32262e-07)
(0.000349241 0.000171717 -6.08878e-22 -0.000349441 -1.91155e-22 2.00173e-07)
(0.000316682 0.000152038 -3.54646e-21 -0.00031657 4.69847e-22 -1.12351e-07)
(0.00029427 0.000142259 -6.26103e-21 -0.000293849 -7.9356e-22 -4.20181e-07)
(0.000290315 0.000143757 -2.46281e-21 -0.000289611 4.69525e-22 -7.04446e-07)
(0.000298579 0.000150892 9.72516e-21 -0.000297669 7.2628e-22 -9.0983e-07)
(0.000505343 0.000251907 -6.01971e-21 -0.000503988 1.58059e-21 -1.3542e-06)
(0.00170547 0.000767884 -3.11497e-22 -0.00170459 -3.98906e-22 -8.78992e-07)
(0.000714493 0.000227928 -1.67797e-20 -0.000717192 -8.30249e-22 2.69904e-06)
(0.000769021 2.59279e-05 4.11855e-20 -0.000777577 -2.22039e-21 8.55557e-06)
(0.00177908 -0.000924673 -1.48515e-20 -0.00181208 -1.35655e-22 3.3001e-05)
(0.00487647 -0.0074755 3.79334e-20 -0.00503486 3.86621e-21 0.000158396)
(0.0094878 -0.028635 -1.34571e-18 -0.00965711 8.33105e-20 0.000169313)
(0.0140536 -0.0844327 -5.87166e-20 -0.0151862 1.37184e-20 0.00113256)
(0.03293 -0.185582 -4.39786e-23 -0.0295912 8.07849e-22 -0.00333882)
(0.0186812 -0.445871 3.44603e-18 -0.0315192 -1.36892e-19 0.0128381)
(0.000998442 -0.00173158 -4.62025e-21 -0.00101556 -2.53096e-21 1.71171e-05)
(0.000415566 -0.00202281 4.97781e-21 -0.000412558 2.4524e-21 -3.00773e-06)
(-0.000190548 -0.00216493 5.19931e-22 0.000190464 -2.76878e-21 8.3731e-08)
(-0.000840168 -0.00212866 -2.32573e-20 0.000837702 -1.41457e-20 2.46652e-06)
(-0.00146723 -0.00186974 -1.48433e-21 0.0014649 3.69295e-21 2.32762e-06)
(-0.00197089 -0.0014045 2.69378e-20 0.00197027 1.20988e-20 6.20231e-07)
(-0.00227743 -0.000803825 -1.50141e-21 0.00227928 -9.69133e-21 -1.8465e-06)
(-0.00236125 -0.000157623 -5.18784e-20 0.00236467 -1.76657e-20 -3.42336e-06)
(-0.00223346 0.000449781 8.78142e-20 0.00223631 3.30692e-20 -2.85147e-06)
(-0.00193359 0.000945922 -2.77657e-20 0.00193435 -2.74565e-20 -7.63032e-07)
(-0.00152616 0.0012823 3.47795e-20 0.00152524 1.03632e-20 9.20591e-07)
(-0.00108702 0.00144677 3.55068e-20 0.00108554 1.36781e-20 1.47743e-06)
(-0.000684738 0.00146296 -5.57801e-20 0.00068322 -1.31221e-20 1.51787e-06)
(-0.000360981 0.0013805 4.10338e-20 0.000359848 3.77861e-21 1.13282e-06)
(-0.000124024 0.00125198 -5.37046e-20 0.000123067 -4.79203e-21 9.57014e-07)
(4.17027e-05 0.00111455 1.65325e-20 -4.28234e-05 8.49477e-21 1.12074e-06)
(0.000158552 0.000985424 1.05503e-20 -0.000159791 1.98514e-21 1.2393e-06)
(0.000244221 0.000868701 -1.06512e-21 -0.000245328 1.6846e-21 1.10714e-06)
(0.000309839 0.000763134 1.08571e-23 -0.000310751 -7.72299e-23 9.11673e-07)
(0.000362084 0.00066571 -1.07594e-21 -0.000362837 -1.7518e-21 7.53578e-07)
(0.000404212 0.000574018 -1.53014e-20 -0.000404837 9.77391e-22 6.24883e-07)
(0.00043656 0.00048836 1.90341e-20 -0.000437215 -4.87552e-22 6.54863e-07)
(0.000456995 0.000408415 -3.45147e-21 -0.000457486 1.3598e-21 4.90436e-07)
(0.000468849 0.000337847 1.37743e-22 -0.000469013 -2.3478e-22 1.64943e-07)
(0.000471228 0.000274734 2.91749e-22 -0.000471364 1.51549e-21 1.35815e-07)
(0.000465652 0.000217942 3.81549e-21 -0.000465919 1.11294e-22 2.66915e-07)
(0.000452651 0.000166389 -8.25258e-21 -0.000452924 2.4099e-23 2.7287e-07)
(0.000439036 0.000122365 8.19239e-21 -0.000439227 1.12395e-22 1.91441e-07)
(0.000409867 8.2367e-05 -7.52695e-21 -0.000409998 8.37213e-22 1.30304e-07)
(0.000370749 5.00032e-05 6.97381e-21 -0.000370824 -2.45744e-22 7.50245e-08)
(0.000328105 2.68062e-05 -3.01422e-21 -0.000328073 -7.73864e-22 -3.16139e-08)
(0.000293419 1.26549e-05 8.3809e-21 -0.0002932 -3.41566e-22 -2.18247e-07)
(0.00026198 5.31542e-06 4.61497e-21 -0.000261532 -4.13821e-22 -4.47989e-07)
(0.000247313 3.1846e-06 2.81278e-23 -0.000246566 4.99064e-22 -7.47266e-07)
(0.000236847 3.63916e-06 4.55406e-21 -0.000235973 -7.62508e-22 -8.73912e-07)
(0.000226791 3.69485e-06 -6.00209e-21 -0.000225769 3.13596e-22 -1.02254e-06)
(0.000407209 -9.13079e-06 2.19222e-20 -0.000407396 -1.54387e-21 1.87363e-07)
(0.00161836 -0.000209538 8.33102e-20 -0.00161389 -2.13566e-21 -4.46753e-06)
(0.000959678 -0.000513581 -4.32351e-21 -0.000987982 -3.60441e-22 2.83043e-05)
(0.00125642 -0.00116845 5.09696e-21 -0.0012245 -1.83118e-22 -3.19258e-05)
(0.00478321 -0.011837 -3.16865e-19 -0.00531803 1.43055e-20 0.000534819)
(0.000693316 -0.0012528 -1.25631e-23 -0.000705904 1.72544e-23 1.25872e-05)
(0.000304402 -0.00144352 -2.98107e-20 -0.00030241 -1.42755e-20 -1.99177e-06)
(-8.76916e-05 -0.00154522 -5.75258e-22 8.75744e-05 -1.61855e-21 1.17209e-07)
(-0.00050783 -0.00155285 -3.47212e-20 0.000506226 -1.43048e-20 1.60408e-06)
(-0.000935813 -0.0014377 5.3896e-20 0.000934269 2.71031e-20 1.54412e-06)