/*--------------------------------*- C++ -*----------------------------------*\
| =========                 |                                                 |
| \\      /  F ield         | OpenFOAM: The Open Source CFD Toolbox           |
|  \\    /   O peration     | Version:  2312                                  |
|   \\  /    A nd           | Website:  www.openfoam.com                      |
|    \\/     M anipulation  |                                                 |
\*---------------------------------------------------------------------------*/
FoamFile
{
    version     2.0;
    format      ascii;
    arch        "LSB;label=32;scalar=64";
    class       volScalarField;
    location    "250";
    object      turbulenceProperties:epsilon;
}
// * * * * * * * * * * * * * * * * * * * * * * * * * * * * * * * * * * * * * //

dimensions      [0 2 -3 0 0 0 0];

internalField   nonuniform List<scalar> 
11040
(
1163.36
3789.92
6415.05
7563.89
7573.75
9696.08
6244.17
5115
4745.42
5155.98
7576.84
10065.8
12511.3
15040.4
17492.4
19544.5
21004.4
21812.2
21992.7
21608.9
20619.9
19135.4
17534.1
16023.2
14575.8
13145.5
11730.2
10345.3
8998.84
7697.08
6449.98
5270.92
4176.67
3177.89
2255.07
1333.17
782.123
471.366
239.009
126.28
42.9455
27.2717
40.6004
94.0363
357.276
1400.27
4847.58
9997.64
14290.6
18611
23035.8
22848.6
18916.7
14249.1
10393.6
7621.17
5707.17
4386.75
3467.41
2813.23
2323.63
1951.1
1674.78
1451.91
1262.22
1107.72
986.599
890.842
812.657
747.092
691.153
642.859
600.695
563.046
527.908
491.207
443.972
398.526
355.02
322.129
274.294
620.46
8.99753
5.0912
3.84707
2.2083
0.609786
39.8204
316.626
1051.58
2290.06
3811.64
5312.62
6670.95
7753.16
8400.82
8507.87
8069.92
7202.43
6102.33
4980.67
3984.87
3170.14
2562.15
2134.92
1818.19
1571.78
1375.9
1215.89
1082.15
968.85
872.421
790.25
720.251
660.669
609.49
565.313
526.782
492.78
457.54
426.737
353.293
415.167
4.46773
3.77225
2.81428
2.10542
1.52705
0.605039
0.185452
0.18466
3.60415
18.0401
47.816
95.988
177.262
324.668
576.543
954.141
1434.12
1939.45
2367.24
2633.03
2703.68
2607.17
2406.24
2158.98
1909.38
1682.06
1486.18
1321.67
1185.04
1071.62
976.695
896.201
827.017
766.506
713.195
665.68
623.77
582.27
547.257
468.337
488.314
2.14124
1.99465
1.68796
1.26834
0.957118
0.726472
0.403818
0.117659
0.0162516
0.000969558
8.00221e-06
0.240789
0.00800903
0.00678195
0.000123693
0.0350011
1.33282
8.66647
33.9968
97.8738
224.014
410.107
616.77
806.566
955.827
1056.27
1110.34
1125.46
1111.39
1077.68
1032.43
981.798
930.136
879.906
832.629
788.453
748.052
706.942
671.497
603.317
597.556
0.991365
1.00545
0.9428
0.795677
0.637605
0.526243
0.450889
0.362605
0.254965
0.154513
0.0831542
0.0422826
0.0268806
0.012397
0.00573572
4.74222e-05
0.0408713
0.00025763
0.000102996
0.00258398
0.0644547
0.289771
2.89295
12.2891
33.8418
71.9989
128.548
201.856
287.445
379.136
470.315
555.003
628.456
687.604
730.844
757.479
769.076
764.846
752.69
713.899
705.809
0.477288
0.502577
0.522851
0.505286
0.451165
0.381881
0.319053
0.26792
0.221949
0.177523
0.135824
0.0991968
0.0688153
0.0508117
0.039346
0.029752
0.0215847
0.0142445
0.00696479
0.000266678
0.00874101
0.122006
0.0349705
0.0190919
0.016374
0.0618425
0.116951
0.637679
2.76512
8.6074
21.2952
44.6918
82.5641
137.745
210.776
298.478
394.204
488.589
574.206
632.572
703.412
0.234513
0.250043
0.272001
0.281465
0.272194
0.249722
0.221511
0.191675
0.161061
0.13056
0.101646
0.0758964
0.0549402
0.039732
0.0294874
0.0231408
0.0187993
0.0152316
0.0130212
0.00996013
0.00667391
0.00353331
0.00192542
1.50042e-05
0.000189731
0.0034968
6.56556e-07
0.0891079
0.133484
0.000547656
0.0277654
0.076437
0.326837
1.45872
5.18793
14.797
35.1929
72.2908
131.52
207.12
330.479
0.117799
0.125671
0.13912
0.151092
0.156509
0.154184
0.145559
0.132555
0.116465
0.098325
0.0795801
0.0618279
0.0465059
0.0345359
0.0259031
0.0199682
0.0158792
0.0130214
0.0108874
0.00940854
0.00827815
0.00684993
0.00539533
0.00432493
0.00309705
0.00206181
0.00107796
0.000378329
5.53943e-07
9.45819e-06
0.000296417
0.00503586
0.0254223
0.00783784
0.00741335
0.0211661
0.131318
0.701771
3.04002
9.02868
30.5795
0.0599231
0.0636611
0.0705289
0.0781703
0.0842965
0.0874417
0.0871643
0.0837531
0.0776104
0.0692163
0.0593124
0.0488738
0.0389422
0.0303961
0.0236339
0.018578
0.0148832
0.0121723
0.0101496
0.00860397
0.00740142
0.00646892
0.00568129
0.00507658
0.00453134
0.0040095
0.00347941
0.00305559
0.00242657
0.0016956
0.000969749
0.000447977
6.31236e-05
1.36456e-07
3.01629e-05
0.000111166
0.00263492
0.0136439
0.00878067
0.0155453
0.221573
0.0307474
0.0324863
0.0357628
0.0398378
0.0439104
0.0472388
0.0492527
0.0496395
0.0483034
0.0453083
0.0409625
0.0357029
0.0300974
0.0247463
0.0200816
0.0162807
0.0133034
0.0110029
0.00922051
0.00781832
0.00669757
0.00580385
0.00508119
0.00448983
0.00401559
0.00364354
0.00335656
0.00312418
0.00297006
0.00278747
0.00256479
0.00226394
0.00185567
0.00124516
0.000786076
0.000308201
2.50678e-05
3.52867e-07
2.54259e-05
3.11421e-05
0.00258398
0.0158472
0.016646
0.0181619
0.020158
0.0223835
0.024561
0.0263911
0.0276141
0.0280342
0.0275501
0.0261823
0.0240651
0.0214288
0.0185807
0.0158108
0.0133213
0.011201
0.00944912
0.0080204
0.0068552
0.00590275
0.00513304
0.00450847
0.00398901
0.00355908
0.00320817
0.002924
0.00269228
0.00250453
0.00235156
0.00222567
0.00212068
0.00203887
0.00196423
0.00186028
0.00167931
0.00134691
0.000843764
0.000322867
0.000112124
1.746e-07
0.00818305
0.00854791
0.0092412
0.0101836
0.0113016
0.0125082
0.0136866
0.0147057
0.0154378
0.0157726
0.015654
0.0150794
0.0141085
0.0128586
0.0114697
0.0100728
0.00876316
0.00759096
0.00657094
0.00569536
0.00495283
0.00433989
0.00383705
0.00341549
0.00306134
0.00276524
0.00251796
0.00231
0.00213313
0.001981
0.00184849
0.00173251
0.00163095
0.00154504
0.00147397
0.00141364
0.0013665
0.00132631
0.00123378
0.00113308
0.000727208
0.00422466
0.00439037
0.00470605
0.00514299
0.00568032
0.00629349
0.00694339
0.00757861
0.00813951
0.00856376
0.00880135
0.00882122
0.00861656
0.00821348
0.00766015
0.00701517
0.00633526
0.00566486
0.0050327
0.00445275
0.00393412
0.00348943
0.00311468
0.002794
0.00251957
0.00228526
0.00208517
0.00191345
0.00176477
0.00163464
0.00151938
0.00141604
0.00132233
0.00123642
0.00115745
0.00108516
0.00101998
0.000964758
0.000918649
0.000879143
0.00085406
0.00217673
0.00225208
0.00239597
0.00259688
0.00284954
0.00314782
0.00347965
0.00382742
0.00416822
0.00447424
0.00471824
0.00487669
0.0049331
0.00488281
0.00473437
0.00450573
0.00421988
0.00390022
0.00356714
0.00323549
0.0029183
0.00263176
0.00238003
0.00215714
0.00196098
0.00178904
0.00163845
0.00150623
0.00138951
0.00128574
0.00119272
0.00110857
0.00103174
0.000960867
0.000894893
0.000833166
0.000775092
0.000720074
0.000668836
0.000617412
0.000582472
0.00111864
0.0011532
0.00121889
0.00131066
0.0014278
0.00156918
0.00173112
0.00190794
0.00209175
0.00227189
0.00243645
0.00257357
0.00267232
0.00272479
0.00272754
0.00268262
0.00259602
0.00247585
0.0023314
0.00217126
0.00200443
0.00184334
0.00169392
0.00155547
0.00142898
0.00131438
0.00121093
0.0011176
0.00103328
0.000956836
0.000887206
0.000823418
0.000764669
0.000710167
0.000659295
0.000611666
0.00056688
0.000524463
0.000484181
0.000444429
0.000411468
0.000575862
0.000591708
0.000621717
0.000663555
0.00071764
0.000783959
0.00086134
0.000947937
0.0010412
0.00113735
0.00123179
0.00131947
0.0013951
0.0014537
0.00149139
0.00150598
0.00149747
0.00146765
0.00141916
0.00135531
0.00128028
0.00120117
0.00112257
0.00104553
0.000971827
0.000902371
0.000837466
0.00077711
0.000721147
0.000669296
0.000621216
0.00057654
0.00053496
0.000496106
0.000459682
0.000425529
0.000393468
0.000363254
0.000334702
0.000307268
0.000283656
0.000304
0.000311417
0.000325587
0.000345338
0.000371177
0.000403244
0.000441091
0.000484053
0.000531249
0.000581329
0.000632533
0.000682858
0.000730007
0.000771535
0.00080513
0.000828933
0.00084168
0.000842929
0.000833076
0.000812892
0.000783742
0.000748936
0.000711155
0.000671515
0.000631531
0.000592161
0.000553974
0.000517322
0.000482411
0.000449323
0.000418063
0.000388576
0.000360812
0.000334648
0.00030998
0.000286781
0.000265005
0.00024452
0.000225252
0.000207
0.000190959
0.000168054
0.000171719
0.000178825
0.000188727
0.000201826
0.000218245
0.00023777
0.000260115
0.00028493
0.000311677
0.000339625
0.00036793
0.000395577
0.000421401
0.000444197
0.000462837
0.0004764
0.000484229
0.000486008
0.000481783
0.000471881
0.000457639
0.000440388
0.00042087
0.000400058
0.00037864
0.000357093
0.000335777
0.000314952
0.00029479
0.000275403
0.000256847
0.000239176
0.000222372
0.000206418
0.000191339
0.000177155
0.000163784
0.000151198
0.000139356
0.000128739
9.73282e-05
9.92245e-05
0.000102955
0.000108162
0.000115134
0.000123951
0.000134489
0.0001466
0.000160123
0.000174816
0.000190346
0.000206335
0.000222317
0.000237736
0.000251983
0.000264452
0.000274583
0.000281903
0.000286071
0.000286885
0.000284321
0.000278906
0.000271269
0.000261825
0.000251136
0.000239631
0.000227639
0.00021543
0.000203221
0.000191173
0.000179405
0.000167994
0.000157016
0.000146492
0.000136435
0.000126881
0.000117871
0.000109353
0.000101315
9.37599e-05
8.69296e-05
5.84124e-05
5.94138e-05
6.1435e-05
6.42779e-05
6.81376e-05
7.30626e-05
7.89748e-05
8.57883e-05
9.34197e-05
0.000101747
0.000110606
0.000119811
0.000129133
0.000138292
0.000146975
0.000154856
0.000161616
0.000166963
0.000170656
0.000172515
0.000172433
0.000170583
0.000167258
0.000162693
0.0001572
0.000151023
0.000144367
0.000137414
0.000130315
0.000123188
0.000116128
0.000109202
0.000102476
9.5978e-05
8.9729e-05
8.37613e-05
7.81162e-05
7.27588e-05
6.76915e-05
6.29042e-05
5.86184e-05
3.60737e-05
3.66114e-05
3.77377e-05
3.93408e-05
4.15502e-05
4.43931e-05
4.78175e-05
5.177e-05
5.62019e-05
6.10462e-05
6.62137e-05
7.1606e-05
7.71038e-05
8.25597e-05
8.78074e-05
9.267e-05
9.69693e-05
0.000100534
0.000103216
0.000104888
0.000105458
0.000104974
0.000103566
0.000101356
9.85159e-05
9.51841e-05
9.14839e-05
8.75271e-05
8.34109e-05
7.92158e-05
7.50081e-05
7.08361e-05
6.67501e-05
6.27739e-05
5.89254e-05
5.52297e-05
5.17213e-05
4.8376e-05
4.52033e-05
4.21734e-05
3.95326e-05
2.27998e-05
2.30907e-05
2.37323e-05
2.46607e-05
2.5961e-05
2.76477e-05
2.96854e-05
3.20393e-05
3.46791e-05
3.75651e-05
4.0646e-05
4.38662e-05
4.71593e-05
5.04439e-05
5.3628e-05
5.66132e-05
5.92986e-05
6.15851e-05
6.33825e-05
6.46114e-05
6.52078e-05
6.51813e-05
6.45924e-05
6.3505e-05
6.2011e-05
6.01879e-05
5.81072e-05
5.58378e-05
5.34395e-05
5.09646e-05
4.84565e-05
4.59476e-05
4.34719e-05
4.10471e-05
3.86868e-05
3.64084e-05
3.42375e-05
3.21575e-05
3.018e-05
2.82632e-05
2.66622e-05
1.46877e-05
1.48456e-05
1.5218e-05
1.57685e-05
1.65525e-05
1.75773e-05
1.88182e-05
2.0252e-05
2.18588e-05
2.3614e-05
2.54862e-05
2.74422e-05
2.94433e-05
3.14427e-05
3.33874e-05
3.52214e-05
3.68866e-05
3.83255e-05
3.94849e-05
4.03161e-05
4.07788e-05
4.08726e-05
4.06283e-05
4.00796e-05
3.92761e-05
3.82609e-05
3.70759e-05
3.57618e-05
3.43559e-05
3.2889e-05
3.1389e-05
2.98785e-05
2.83777e-05
2.68994e-05
2.54528e-05
2.40495e-05
2.27077e-05
2.14158e-05
2.01847e-05
1.89706e-05
1.80121e-05
9.61299e-06
9.69847e-06
9.91815e-06
1.02515e-05
1.07343e-05
1.13699e-05
1.21409e-05
1.30316e-05
1.40285e-05
1.51157e-05
1.62733e-05
1.74809e-05
1.87148e-05
1.99471e-05
2.11465e-05
2.228e-05
2.33138e-05
2.42139e-05
2.49489e-05
2.54897e-05
2.58117e-05
2.5913e-05
2.58105e-05
2.55227e-05
2.50776e-05
2.44995e-05
2.38127e-05
2.30412e-05
2.22074e-05
2.13297e-05
2.04262e-05
1.95104e-05
1.85958e-05
1.76906e-05
1.68006e-05
1.59335e-05
1.51015e-05
1.4297e-05
1.3529e-05
1.27578e-05
1.21889e-05
6.37572e-06
6.42159e-06
6.55317e-06
6.75908e-06
7.06219e-06
7.46367e-06
7.95142e-06
8.51443e-06
9.14349e-06
9.82792e-06
1.0555e-05
1.13114e-05
1.20826e-05
1.28511e-05
1.35981e-05
1.43038e-05
1.49479e-05
1.55104e-05
1.59725e-05
1.63169e-05
1.65289e-05
1.66074e-05
1.65627e-05
1.64054e-05
1.61513e-05
1.58144e-05
1.54088e-05
1.49489e-05
1.44481e-05
1.39182e-05
1.33692e-05
1.28098e-05
1.22497e-05
1.16925e-05
1.11425e-05
1.06046e-05
1.00868e-05
9.58392e-06
9.10323e-06
8.61164e-06
8.27568e-06
4.27611e-06
4.30037e-06
4.38038e-06
4.50998e-06
4.70372e-06
4.96163e-06
5.27518e-06
5.63668e-06
6.0397e-06
6.477e-06
6.94014e-06
7.42047e-06
7.90855e-06
8.39352e-06
8.86367e-06
9.30685e-06
9.71082e-06
1.00634e-05
1.03536e-05
1.05709e-05
1.07067e-05
1.07608e-05
1.07398e-05
1.06499e-05
1.05003e-05
1.02993e-05
1.00552e-05
9.77668e-06
9.47189e-06
9.1481e-06
8.81104e-06
8.46641e-06
8.12001e-06
7.77421e-06
7.43182e-06
7.09577e-06
6.77124e-06
6.45497e-06
6.15223e-06
5.83743e-06
5.63884e-06
2.89503e-06
2.90759e-06
2.95704e-06
3.04018e-06
3.16614e-06
3.33444e-06
3.53903e-06
3.7745e-06
4.03632e-06
4.31951e-06
4.61839e-06
4.92723e-06
5.23984e-06
5.54928e-06
5.84819e-06
6.12899e-06
6.38418e-06
6.60638e-06
6.78891e-06
6.92551e-06
7.01111e-06
7.04602e-06
7.03479e-06
6.98109e-06
6.89044e-06
6.76782e-06
6.6183e-06
6.44715e-06
6.25924e-06
6.05901e-06
5.84991e-06
5.63558e-06
5.41939e-06
5.20314e-06
4.98841e-06
4.77702e-06
4.57224e-06
4.37208e-06
4.18024e-06
3.9778e-06
3.86008e-06
1.97559e-06
1.9819e-06
2.01304e-06
2.06742e-06
2.15069e-06
2.26216e-06
2.39753e-06
2.55297e-06
2.72526e-06
2.91095e-06
3.10618e-06
3.30707e-06
3.50956e-06
3.70913e-06
3.90108e-06
4.08064e-06
4.24316e-06
4.3841e-06
4.49943e-06
4.58539e-06
4.63898e-06
4.66076e-06
4.65393e-06
4.62074e-06
4.56452e-06
4.48835e-06
4.39532e-06
4.28862e-06
4.17127e-06
4.04591e-06
3.91495e-06
3.78017e-06
3.6438e-06
3.50746e-06
3.37157e-06
3.23745e-06
3.10718e-06
2.97952e-06
2.85698e-06
2.72612e-06
2.65568e-06
1.35711e-06
1.36018e-06
1.38023e-06
1.41653e-06
1.47248e-06
1.54738e-06
1.63815e-06
1.74207e-06
1.85682e-06
1.98001e-06
2.10898e-06
2.24111e-06
2.37366e-06
2.50369e-06
2.62816e-06
2.74404e-06
2.84842e-06
2.93849e-06
3.0118e-06
3.06608e-06
3.09957e-06
3.11287e-06
3.10828e-06
3.08716e-06
3.05158e-06
3.00347e-06
2.94474e-06
2.87738e-06
2.80324e-06
2.72396e-06
2.64107e-06
2.55557e-06
2.46894e-06
2.38213e-06
2.29544e-06
2.20971e-06
2.12621e-06
2.04421e-06
1.96538e-06
1.88041e-06
1.83785e-06
9.37379e-07
9.38842e-07
9.5209e-07
9.76832e-07
1.01506e-06
1.06609e-06
1.12774e-06
1.19805e-06
1.27537e-06
1.358e-06
1.44412e-06
1.53193e-06
1.61958e-06
1.70514e-06
1.78663e-06
1.86212e-06
1.92975e-06
1.98779e-06
2.03473e-06
2.06923e-06
2.09023e-06
2.09827e-06
2.09501e-06
2.08129e-06
2.05841e-06
2.02761e-06
1.99009e-06
1.94709e-06
1.89977e-06
1.84914e-06
1.79614e-06
1.7414e-06
1.68587e-06
1.63007e-06
1.57432e-06
1.51908e-06
1.46512e-06
1.41202e-06
1.36091e-06
1.30546e-06
1.27929e-06
6.50364e-07
6.51078e-07
6.60101e-07
6.7734e-07
7.03887e-07
7.3914e-07
7.81529e-07
8.29648e-07
8.82315e-07
9.38329e-07
9.96425e-07
1.05536e-06
1.1139e-06
1.17074e-06
1.2246e-06
1.27422e-06
1.31844e-06
1.35617e-06
1.38649e-06
1.4086e-06
1.42185e-06
1.42672e-06
1.4244e-06
1.41541e-06
1.40058e-06
1.38069e-06
1.35653e-06
1.32887e-06
1.29842e-06
1.26583e-06
1.23168e-06
1.19643e-06
1.16056e-06
1.12441e-06
1.08838e-06
1.05254e-06
1.01743e-06
9.82851e-07
9.49501e-07
9.13167e-07
8.96905e-07
4.52834e-07
4.53241e-07
4.59595e-07
4.71874e-07
4.90607e-07
5.15285e-07
5.44778e-07
5.78074e-07
6.14323e-07
6.52676e-07
6.9225e-07
7.32191e-07
7.71654e-07
8.09774e-07
8.45702e-07
8.7863e-07
9.07817e-07
9.32578e-07
9.52357e-07
9.66662e-07
9.75116e-07
9.78087e-07
9.76447e-07
9.70511e-07
9.608e-07
9.47837e-07
9.32124e-07
9.14154e-07
8.94386e-07
8.73225e-07
8.51031e-07
8.2813e-07
8.04773e-07
7.81233e-07
7.57704e-07
7.34275e-07
7.11271e-07
6.88586e-07
6.66658e-07
6.42746e-07
6.32334e-07
3.16151e-07
3.16465e-07
3.21097e-07
3.3003e-07
3.43455e-07
3.60949e-07
3.81699e-07
4.04978e-07
4.30174e-07
4.56685e-07
4.83896e-07
5.11215e-07
5.38065e-07
5.63868e-07
5.88062e-07
6.10125e-07
6.29583e-07
6.46008e-07
6.59062e-07
6.68452e-07
6.73951e-07
6.75838e-07
6.74754e-07
6.70885e-07
6.64569e-07
6.56152e-07
6.45959e-07
6.343e-07
6.21467e-07
6.0772e-07
5.93288e-07
5.78375e-07
5.63143e-07
5.47769e-07
5.32367e-07
5.17007e-07
5.01889e-07
4.86956e-07
4.72494e-07
4.567e-07
4.50096e-07
2.21149e-07
2.2146e-07
2.2495e-07
2.31579e-07
2.41339e-07
2.53884e-07
2.68632e-07
2.85061e-07
3.02734e-07
3.21224e-07
3.40103e-07
3.58957e-07
3.77393e-07
3.95022e-07
4.11471e-07
4.26401e-07
4.39509e-07
4.50524e-07
4.59241e-07
4.65483e-07
4.69111e-07
4.70331e-07
4.69609e-07
4.67054e-07
4.62887e-07
4.57341e-07
4.50632e-07
4.42963e-07
4.34525e-07
4.25483e-07
4.15986e-07
4.0617e-07
3.96134e-07
3.86001e-07
3.75822e-07
3.65681e-07
3.55672e-07
3.45776e-07
3.36161e-07
3.2572e-07
3.21228e-07
1.54881e-07
1.55218e-07
1.57924e-07
1.62927e-07
1.7011e-07
1.79198e-07
1.89774e-07
2.01467e-07
2.13963e-07
2.26965e-07
2.40173e-07
2.533e-07
2.66075e-07
2.78234e-07
2.89532e-07
2.99744e-07
3.08681e-07
3.16175e-07
3.22101e-07
3.26361e-07
3.28873e-07
3.29787e-07
3.29443e-07
3.279e-07
3.25298e-07
3.21792e-07
3.17519e-07
3.12609e-07
3.07179e-07
3.0134e-07
2.95187e-07
2.88804e-07
2.82264e-07
2.75634e-07
2.68949e-07
2.62282e-07
2.5567e-07
2.49116e-07
2.42743e-07
2.35787e-07
2.3303e-07
1.08531e-07
1.08893e-07
1.1104e-07
1.14862e-07
1.20198e-07
1.26832e-07
1.34472e-07
1.42854e-07
1.51756e-07
1.60968e-07
1.7028e-07
1.79494e-07
1.88426e-07
1.96894e-07
2.04734e-07
2.11799e-07
2.17961e-07
2.23115e-07
2.27182e-07
2.301e-07
2.31811e-07
2.32424e-07
2.32184e-07
2.3113e-07
2.2936e-07
2.26985e-07
2.24102e-07
2.208e-07
2.17164e-07
2.13263e-07
2.09163e-07
2.04916e-07
2.00571e-07
1.96167e-07
1.91736e-07
1.87306e-07
1.82908e-07
1.78557e-07
1.74302e-07
1.69748e-07
1.67603e-07
7.60509e-08
7.64282e-08
7.81578e-08
8.1102e-08
8.50838e-08
8.99445e-08
9.54853e-08
1.01524e-07
1.07906e-07
1.14481e-07
1.21099e-07
1.27621e-07
1.33919e-07
1.39874e-07
1.45376e-07
1.50331e-07
1.5466e-07
1.58299e-07
1.61209e-07
1.63359e-07
1.64721e-07
1.6537e-07
1.6548e-07
1.6506e-07
1.64165e-07
1.62859e-07
1.61201e-07
1.59244e-07
1.57039e-07
1.54629e-07
1.52056e-07
1.49354e-07
1.46561e-07
1.43706e-07
1.4081e-07
1.37891e-07
1.34982e-07
1.32082e-07
1.29258e-07
1.26135e-07
1.25103e-07
5.3262e-08
5.36383e-08
5.50445e-08
5.73222e-08
6.03002e-08
6.38644e-08
6.7882e-08
7.22332e-08
7.68159e-08
8.15293e-08
8.62683e-08
9.09304e-08
9.54207e-08
9.96528e-08
1.03552e-07
1.07053e-07
1.10102e-07
1.1265e-07
1.14663e-07
1.16115e-07
1.16977e-07
1.17305e-07
1.17235e-07
1.16787e-07
1.16012e-07
1.14968e-07
1.13707e-07
1.12273e-07
1.10702e-07
1.09026e-07
1.07269e-07
1.05455e-07
1.03602e-07
1.01729e-07
9.98447e-08
9.79557e-08
9.60725e-08
9.4212e-08
9.23662e-08
9.04806e-08
8.92605e-08
3.72691e-08
3.76236e-08
3.87602e-08
4.05138e-08
4.27374e-08
4.53531e-08
4.82712e-08
5.14076e-08
5.46927e-08
5.8062e-08
6.14504e-08
6.47928e-08
6.80239e-08
7.10801e-08
7.39058e-08
7.64596e-08
7.87158e-08
8.06606e-08
8.22899e-08
8.36011e-08
8.45844e-08
8.5264e-08
8.57163e-08
8.59245e-08
8.58971e-08
8.56565e-08
8.52229e-08
8.46156e-08
8.38546e-08
8.29605e-08
8.19541e-08
8.08557e-08
7.96848e-08
7.84609e-08
7.71945e-08
7.58918e-08
7.45817e-08
7.32573e-08
7.19796e-08
7.04658e-08
7.03607e-08
2.60597e-08
2.63786e-08
2.72791e-08
2.85978e-08
3.02236e-08
3.21191e-08
3.42338e-08
3.65098e-08
3.88903e-08
4.13192e-08
4.37449e-08
4.61253e-08
4.84255e-08
5.06109e-08
5.26416e-08
5.44719e-08
5.60549e-08
5.735e-08
5.83311e-08
5.89912e-08
5.93194e-08
5.93605e-08
5.92019e-08
5.88749e-08
5.84176e-08
5.78669e-08
5.72526e-08
5.65966e-08
5.59148e-08
5.52187e-08
5.45176e-08
5.38181e-08
5.31209e-08
5.2431e-08
5.17488e-08
5.10726e-08
5.03962e-08
4.97386e-08
4.90507e-08
4.84886e-08
4.75547e-08
1.8219e-08
1.85031e-08
1.92105e-08
2.01766e-08
2.13175e-08
2.26261e-08
2.40899e-08
2.569e-08
2.74009e-08
2.91831e-08
3.09852e-08
3.27533e-08
3.44439e-08
3.60335e-08
3.75203e-08
3.89187e-08
4.0248e-08
4.15207e-08
4.2738e-08
4.38864e-08
4.4947e-08
4.58967e-08
4.67429e-08
4.74438e-08
4.79814e-08
4.83532e-08
4.85617e-08
4.86132e-08
4.85188e-08
4.82932e-08
4.7952e-08
4.75103e-08
4.69872e-08
4.63955e-08
4.57534e-08
4.50631e-08
4.43515e-08
4.3608e-08
4.29171e-08
4.19273e-08
4.24363e-08
1.27336e-08
1.29759e-08
1.35295e-08
1.42423e-08
1.50445e-08
1.59285e-08
1.68855e-08
1.79112e-08
1.901e-08
2.01867e-08
2.14375e-08
2.27414e-08
2.40547e-08
2.53134e-08
2.64431e-08
2.73757e-08
2.80654e-08
2.84965e-08
2.86812e-08
2.86582e-08
2.84468e-08
2.81047e-08
2.7698e-08
2.72678e-08
2.68406e-08
2.64349e-08
2.60638e-08
2.57356e-08
2.54545e-08
2.52213e-08
2.50343e-08
2.48908e-08
2.47847e-08
2.47118e-08
2.46698e-08
2.46554e-08
2.46444e-08
2.46636e-08
2.4629e-08
2.48542e-08
2.39864e-08
8.89228e-09
9.05758e-09
9.44256e-09
9.93895e-09
1.05127e-08
1.11624e-08
1.18669e-08
1.25955e-08
1.3322e-08
1.40318e-08
1.47284e-08
1.5435e-08
1.61897e-08
1.70359e-08
1.80113e-08
1.91392e-08
2.04224e-08
2.18406e-08
2.33544e-08
2.49038e-08
2.64482e-08
2.79244e-08
2.92883e-08
3.04789e-08
3.1471e-08
3.22589e-08
3.28464e-08
3.32426e-08
3.34616e-08
3.35198e-08
3.3434e-08
3.32203e-08
3.28979e-08
3.24792e-08
3.19804e-08
3.14068e-08
3.07908e-08
3.01116e-08
2.94899e-08
2.84591e-08
2.92827e-08
6.23407e-09
6.31543e-09
6.51032e-09
6.74196e-09
7.01834e-09
7.37959e-09
7.84934e-09
8.43318e-09
9.11525e-09
9.85302e-09
1.05798e-08
1.1217e-08
1.16926e-08
1.19599e-08
1.20096e-08
1.18694e-08
1.15918e-08
1.12377e-08
1.08586e-08
1.04995e-08
1.01499e-08
9.8149e-09
9.49074e-09
9.19493e-09
8.92982e-09
8.69689e-09
8.50178e-09
8.35243e-09
8.25479e-09
8.21047e-09
8.2187e-09
8.27891e-09
8.38899e-09
8.54771e-09
8.754e-09
9.00895e-09
9.29651e-09
9.63709e-09
9.95972e-09
1.05511e-08
1.01743e-08
4.45638e-09
4.53586e-09
4.65964e-09
4.7359e-09
4.76085e-09
4.7682e-09
4.78791e-09
4.85019e-09
4.99118e-09
5.2545e-09
5.6902e-09
6.35009e-09
7.279e-09
8.50402e-09
1.00244e-08
1.18056e-08
1.37801e-08
1.58545e-08
1.79278e-08
1.98839e-08
2.1694e-08
2.33246e-08
2.47113e-08
2.58329e-08
2.67086e-08
2.73683e-08
2.78339e-08
2.81509e-08
2.83245e-08
2.83969e-08
2.83893e-08
2.83036e-08
2.8144e-08
2.79082e-08
2.76068e-08
2.72423e-08
2.68348e-08
2.63602e-08
2.59024e-08
2.52432e-08
2.53162e-08
3.28059e-09
3.39764e-09
3.5799e-09
3.73846e-09
3.8278e-09
3.832e-09
3.74613e-09
3.58376e-09
3.37784e-09
3.17252e-09
3.01291e-09
2.93639e-09
2.96623e-09
3.10831e-09
3.35081e-09
3.6667e-09
4.01894e-09
4.36798e-09
4.67979e-09
4.932e-09
5.10353e-09
5.18679e-09
5.14425e-09
5.01848e-09
4.84221e-09
4.63517e-09
4.42412e-09
4.25399e-09
4.16324e-09
4.13746e-09
4.14215e-09
4.16343e-09
4.19811e-09
4.24379e-09
4.29875e-09
4.35782e-09
4.42554e-09
4.47607e-09
4.60232e-09
4.40644e-09
5.50392e-09
2.43398e-09
2.41555e-09
2.57595e-09
3.12332e-09
4.26342e-09
6.11199e-09
8.64457e-09
1.17146e-08
1.50995e-08
1.85469e-08
2.18134e-08
2.46915e-08
2.70307e-08
2.87435e-08
2.98048e-08
3.02445e-08
3.0134e-08
2.95691e-08
2.86555e-08
2.74842e-08
2.6159e-08
2.49992e-08
2.38171e-08
2.26901e-08
2.16407e-08
2.06633e-08
1.97826e-08
1.88612e-08
1.78815e-08
1.69286e-08
1.60216e-08
1.51558e-08
1.43148e-08
1.34772e-08
1.2638e-08
1.17905e-08
1.0924e-08
1.00333e-08
9.0607e-09
8.4419e-09
6.41795e-09
6734.4
4244.88
2491.52
1647.81
1173.44
855.734
623.452
447.511
312.918
210.67
134.364
79.4807
42.3596
19.4994
7.28493
1.9996
0.325793
0.0213236
3.69622e-05
0.000411146
3.19749e-05
4.96893e-08
6.72532e-07
2.53583e-06
4.56227e-06
4.30411e-06
3.04211e-06
2.10722e-06
1.66006e-06
1.37908e-06
1.13366e-06
9.04509e-07
7.03038e-07
5.35087e-07
3.99783e-07
2.93825e-07
2.13571e-07
1.54381e-07
1.11922e-07
8.19078e-08
6.09611e-08
4.63482e-08
3.61171e-08
2.87023e-08
2.32487e-08
1.79243e-08
1.40744e-08
1.16242e-08
9.50286e-09
7.56736e-09
5.87974e-09
4.49744e-09
3.39111e-09
2.53605e-09
1.88485e-09
1.40862e-09
1.0707e-09
8.32406e-10
7.05114e-10
6.40373e-10
6.19822e-10
6.45314e-10
6.99625e-10
7.83455e-10
8.84241e-10
9.98772e-10
1.12691e-09
1.25964e-09
1.41278e-09
1.545e-09
1.75211e-09
1.80914e-09
2.19681e-09
2.03123e-09
1532.22
2911.34
2458.31
1826.4
1371.1
1052.94
817.71
634.158
486.164
365.481
266.906
187.2
124.284
76.6164
42.6873
20.6534
8.13575
2.38149
0.435828
0.0367084
0.000347783
0.00024428
8.54516e-05
2.12754e-06
2.56518e-09
8.00044e-07
2.32612e-06
2.63785e-06
2.19181e-06
1.58384e-06
1.18526e-06
9.23939e-07
7.2612e-07
5.63433e-07
4.28123e-07
3.17776e-07
2.31089e-07
1.6557e-07
1.18026e-07
8.45945e-08
6.15784e-08
4.58397e-08
3.50708e-08
2.74613e-08
2.21828e-08
1.61735e-08
1.27227e-08
1.01559e-08
8.20235e-09
6.55438e-09
5.10576e-09
3.90546e-09
2.93945e-09
2.19856e-09
1.63865e-09
1.23677e-09
9.49934e-10
7.80406e-10
6.86083e-10
6.27382e-10
6.11184e-10
6.38711e-10
6.96685e-10
7.82505e-10
8.85988e-10
1.00302e-09
1.13344e-09
1.26865e-09
1.4234e-09
1.55963e-09
1.76442e-09
1.8325e-09
2.20224e-09
2.06648e-09
75.5146
382.169
810.774
942.528
898.42
800.218
696.67
599.106
508.024
423.174
344.724
273.143
209.053
153.122
106.01
68.1777
39.691
20.1601
8.4411
2.67409
0.556025
0.0600818
0.0014172
1.64909e-05
1.13415e-05
1.27733e-07
8.90556e-13
3.1779e-07
1.18114e-06
1.55503e-06
1.54085e-06
1.20406e-06
8.64067e-07
6.22795e-07
4.57226e-07
3.37299e-07
2.47129e-07
1.78715e-07
1.27492e-07
9.02826e-08
6.4132e-08
4.62853e-08
3.43404e-08
2.62519e-08
2.08639e-08
1.64899e-08
1.27484e-08
9.81088e-09
7.7473e-09
6.18586e-09
4.86588e-09
3.74513e-09
2.82781e-09
2.11385e-09
1.57435e-09
1.18587e-09
9.14241e-10
7.71149e-10
6.72054e-10
6.17728e-10
6.05943e-10
6.34201e-10
6.95929e-10
7.83241e-10
8.89415e-10
1.009e-09
1.14164e-09
1.27937e-09
1.43572e-09
1.57631e-09
1.77824e-09
1.85813e-09
2.20866e-09
2.10429e-09
477.662
189.026
71.8375
120.589
206.778
271.14
308.829
326.319
327.926
316.619
295.157
266.214
232.209
195.328
157.659
121.241
87.8924
59.1641
36.1505
19.3786
8.67055
3.00795
0.721565
0.100306
0.00501635
1.03965e-09
0.000201761
1.52536e-09
4.29681e-08
1.79824e-08
4.02018e-07
6.60582e-07
8.32884e-07
7.97698e-07
5.98919e-07
4.12309e-07
2.81541e-07
1.93934e-07
1.34638e-07
9.43929e-08
6.6797e-08
4.77348e-08
3.46321e-08
2.56687e-08
1.96022e-08
1.6179e-08
1.29543e-08
1.0044e-08
7.85301e-09
6.25604e-09
4.98744e-09
3.90084e-09
2.98139e-09
2.23892e-09
1.66763e-09
1.24799e-09
9.50724e-10
7.69977e-10
6.59815e-10
6.09031e-10
6.02637e-10
6.33233e-10
6.97107e-10
7.86389e-10
8.95227e-10
1.01745e-09
1.15239e-09
1.29273e-09
1.45063e-09
1.59539e-09
1.79504e-09
1.88586e-09
2.21907e-09
2.14218e-09
711.611
600.122
372.802
177.123
66.0431
24.8803
25.0523
46.0481
75.1793
104.361
128.783
145.9
154.607
154.806
147.2
133.195
114.586
93.3347
71.4124
50.672
32.7041
18.6414
8.99574
3.4459
0.962539
0.164237
0.0129793
6.00021e-05
1.57904e-08
1.69611e-06
1.51933e-06
2.71846e-07
7.81265e-08
2.54756e-07
3.77249e-07
4.52444e-07
3.94367e-07
2.766e-07
1.77498e-07
1.12188e-07
7.17593e-08
4.75703e-08
3.31933e-08
2.43224e-08
1.83555e-08
1.49621e-08
1.22229e-08
9.62443e-09
7.44182e-09
5.81862e-09
4.62657e-09
3.67304e-09
2.86457e-09
2.18517e-09
1.64406e-09
1.23793e-09
9.50919e-10
7.51692e-10
6.41634e-10
5.9971e-10
6.01246e-10
6.35885e-10
7.01167e-10
7.92018e-10
9.03197e-10
1.02819e-09
1.16563e-09
1.30867e-09
1.46816e-09
1.61698e-09
1.81479e-09
1.91551e-09
2.23355e-09
2.18107e-09
791.672
782.167
687.698
547.552
393.075
253.074
144.585
70.3847
26.8743
7.80171
6.39748
16.4097
32.5373
50.3146
66.2142
77.8389
83.8899
84.0084
78.6513
68.9257
56.3459
42.5928
29.3224
17.9414
9.42224
4.03416
1.30581
0.282985
0.0341322
0.000997238
4.10224e-06
2.52121e-05
1.25152e-07
2.80301e-08
5.58424e-10
7.41013e-08
1.22956e-07
1.6323e-07
1.8849e-07
1.62663e-07
1.10943e-07
6.76995e-08
4.0069e-08
2.44906e-08
1.61366e-08
1.21554e-08
1.00649e-08
8.43669e-09
6.82808e-09
5.36297e-09
4.1899e-09
3.28783e-09
2.57421e-09
1.99044e-09
1.52027e-09
1.15877e-09
9.00321e-10
7.18564e-10
6.21293e-10
5.90755e-10
6.02793e-10
6.43749e-10
7.11013e-10
8.02347e-10
9.14733e-10
1.0421e-09
1.18211e-09
1.32799e-09
1.48916e-09
1.64199e-09
1.83822e-09
1.94782e-09
2.25242e-09
2.2229e-09
731.345
699.543
653.922
603.561
542.224
469.008
386.554
300.265
217.278
144.189
85.5528
43.2078
16.6738
3.93351
2.06618
7.75377
17.7499
29.0295
39.014
45.8759
48.656
47.2228
42.147
34.511
25.6807
17.0641
9.8429
4.73516
1.79175
0.487574
0.0849559
0.00702803
3.51975e-05
5.80804e-08
3.28695e-06
3.11704e-06
4.18933e-07
3.70053e-09
2.90294e-08
3.10172e-08
4.36868e-08
5.87754e-08
5.58769e-08
3.97454e-08
2.41146e-08
1.41432e-08
8.9196e-09
6.38504e-09
5.05806e-09
4.18401e-09
3.47426e-09
2.84679e-09
2.28658e-09
1.7925e-09
1.37883e-09
1.05635e-09
8.27481e-10
6.76983e-10
5.99117e-10
5.81328e-10
6.06003e-10
6.56894e-10
7.28765e-10
8.20639e-10
9.32759e-10
1.06117e-09
1.20316e-09
1.35175e-09
1.51459e-09
1.67125e-09
1.86621e-09
1.98345e-09
2.27633e-09
2.26891e-09
352.842
325.277
303.16
293.432
291.151
293.773
296.445
293.87
281.554
257.456
222.458
179.941
134.749
91.872
55.471
28.1255
10.5769
2.09097
0.944855
4.8786
11.5595
18.7858
24.7184
28.1242
28.4923
25.9953
21.3549
15.6485
10.0349
5.46808
2.4203
0.824962
0.194304
0.0273616
0.00125107
1.02879e-06
2.98951e-05
1.51317e-09
2.18794e-09
1.73539e-08
2.13672e-08
9.42931e-09
5.61238e-09
6.17863e-09
1.17423e-08
1.56465e-08
1.34975e-08
9.28056e-09
5.87479e-09
3.76489e-09
2.60828e-09
1.99371e-09
1.6463e-09
1.40016e-09
1.17606e-09
9.59668e-10
7.76039e-10
6.47673e-10
5.82949e-10
5.76493e-10
6.14427e-10
6.77872e-10
7.57003e-10
8.49883e-10
9.59867e-10
1.08695e-09
1.22962e-09
1.38079e-09
1.54564e-09
1.70603e-09
1.90007e-09
2.02321e-09
2.306e-09
2.31991e-09
37.8915
34.7499
32.093
31.7246
33.1756
36.7658
43.2989
53.2142
66.4902
82.373
99.0478
113.654
122.916
124.147
116.243
100.167
78.6805
55.4152
33.9895
17.1161
6.10301
0.946555
0.649353
3.63812
8.19544
12.7071
15.9007
17.0468
16.0305
13.2923
9.64236
6.01525
3.13608
1.30755
0.409221
0.0881863
0.0108824
0.000334137
8.92387e-06
6.69944e-05
4.07436e-06
1.75441e-09
9.52599e-09
9.71067e-09
2.72658e-09
9.31345e-09
6.68842e-09
1.98935e-09
3.5898e-09
4.82198e-09
4.00985e-09
2.64585e-09
1.66562e-09
1.14776e-09
8.92754e-10
7.51005e-10
6.59566e-10
5.95623e-10
5.61191e-10
5.66066e-10
6.15343e-10
6.9736e-10
7.95513e-10
8.98852e-10
1.00874e-09
1.13019e-09
1.26727e-09
1.41644e-09
1.58158e-09
1.74562e-09
1.94007e-09
2.06799e-09
2.34276e-09
2.37735e-09
0.337272
0.270419
0.212415
0.189902
0.186818
0.203074
0.262721
0.409097
0.731799
1.4176
2.79691
5.39799
9.8295
16.5687
25.5357
35.756
45.3605
52.0371
53.8646
50.1263
41.6257
30.3589
18.8464
9.2928
3.01227
0.306452
0.627659
2.90922
5.92119
8.52364
9.90619