/*--------------------------------*- C++ -*----------------------------------*\
| =========                 |                                                 |
| \\      /  F ield         | OpenFOAM: The Open Source CFD Toolbox           |
|  \\    /   O peration     | Version:  2312                                  |
|   \\  /    A nd           | Website:  www.openfoam.com                      |
|    \\/     M anipulation  |                                                 |
\*---------------------------------------------------------------------------*/
FoamFile
{
    version     2.0;
    format      ascii;
    arch        "LSB;label=32;scalar=64";
    class       volScalarField;
    location    "250";
    object      turbulenceProperties:k;
}
// * * * * * * * * * * * * * * * * * * * * * * * * * * * * * * * * * * * * * //

dimensions      [0 2 -2 0 0 0 0];

internalField   nonuniform List<scalar> 
11040
(
1.34822
2.78287
4.27929
5.66107
7.22213
12.725
11.2572
10.2966
10.2576
11.687
16.2666
19.5483
21.8892
24.0792
26.2008
27.9638
29.1987
29.8602
29.986
29.6443
28.7952
27.5177
26.1155
24.7495
23.3894
21.9907
20.5442
19.0574
17.5296
15.9578
14.3436
12.6932
11.0188
9.31867
7.48566
5.11919
3.58182
2.66101
1.80562
1.28425
0.839609
0.189167
0.231011
0.376069
0.931239
2.35021
6.5012
12.7208
19.407
27.8343
37.6958
42.0643
40.31
35.7557
30.8625
26.6142
23.1238
20.2587
17.9046
15.9749
14.3645
13.0292
11.9671
11.0559
10.2271
9.50278
8.89992
8.40006
7.97544
7.60597
7.27925
6.9873
6.72398
6.4816
6.24751
5.98858
5.61815
5.25593
4.91167
4.66054
4.28906
7.1727
0.108793
0.0818756
0.0711002
0.0543298
0.0301761
0.296791
1.1766
2.92028
5.55587
8.86634
12.7226
16.9615
21.2007
24.8827
27.4358
28.4863
28.0284
26.4096
24.182
21.8386
19.6411
17.7824
16.3221
15.126
14.1032
13.2228
12.4521
11.7652
11.1453
10.5843
10.0771
9.62074
9.21225
8.84415
8.51019
8.19944
7.91633
7.61508
7.35921
6.67418
7.56558
0.0766355
0.0704243
0.0608272
0.0525701
0.04476
0.0282457
0.0156196
0.0158647
0.0791988
0.210963
0.408681
0.686554
1.13801
1.94796
3.31524
5.36177
8.02068
10.9921
13.8221
16.0679
17.4625
17.9763
17.8146
17.2575
16.5197
15.7398
14.9905
14.3006
13.6789
13.1238
12.6279
12.182
11.7777
11.4052
11.0598
10.7344
10.4356
10.1207
9.86126
9.14195
9.53373
0.0530543
0.0512063
0.0471077
0.040832
0.0354574
0.0308728
0.0231409
0.012884
0.00515806
0.00142828
0.000164404
0.0181522
0.00337936
0.00301958
0.000454183
0.00683173
0.0604217
0.236245
0.670826
1.53267
2.97012
4.86649
6.86976
8.72682
10.2823
11.4757
12.3186
12.8573
13.1557
13.2781
13.2796
13.2032
13.0805
12.9309
12.7681
12.5952
12.4229
12.2153
12.0424
11.5255
11.6242
0.0360983
0.0363539
0.0352032
0.0323404
0.0289506
0.0263007
0.0243364
0.0218114
0.0183102
0.0143277
0.0106178
0.00767841
0.00617052
0.00429102
0.00300373
0.000350208
0.00737558
0.000729219
0.000474582
0.00194472
0.0122675
0.0412598
0.185654
0.504358
1.0419
1.81527
2.80644
3.96706
5.23153
6.52902
7.79391
8.97327
10.0289
10.94
11.6969
12.2942
12.7437
13.0362
13.2384
13.1684
13.3439
0.0250471
0.0257022
0.0262156
0.0257717
0.0243525
0.0224052
0.0204809
0.01877
0.0170844
0.015278
0.013362
0.0114168
0.00950517
0.00816673
0.0071855
0.00624817
0.00533013
0.00435639
0.00310815
0.000709272
0.00345519
0.0136443
0.00681999
0.0050154
0.00469682
0.0133628
0.0268508
0.0852252
0.228752
0.49989
0.944402
1.60307
2.49905
3.63584
4.98633
6.48493
8.04019
9.55306
10.9468
12.0418
13.2463
0.017557
0.0181291
0.0189084
0.0192346
0.0189152
0.0181176
0.0170637
0.0158735
0.0145516
0.0131029
0.0115629
0.00999288
0.00850301
0.00723186
0.00623066
0.00552069
0.00497615
0.00447676
0.00413788
0.00361509
0.00296393
0.00218185
0.00164061
0.000184262
0.0005717
0.00216736
4.55718e-05
0.014238
0.0220481
0.000888942
0.00774567
0.0198224
0.0575169
0.161996
0.391684
0.818663
1.51611
2.54724
3.93862
5.53842
7.80308
0.0124434
0.0128524
0.0135227
0.0140925
0.0143429
0.0142361
0.0138322
0.0131999
0.0123728
0.0113686
0.0102279
0.00901542
0.00781919
0.00673847
0.0058361
0.00512444
0.00457012
0.00413903
0.00378506
0.00351953
0.00330225
0.00300181
0.00266154
0.00238208
0.00201765
0.00165392
0.00121429
0.000747707
4.03336e-05
0.000142367
0.00066652
0.00258786
0.00708121
0.00338149
0.00337318
0.00712655
0.029179
0.0991665
0.283342
0.62435
1.48541
0.00887488
0.00914751
0.00962829
0.0101365
0.0105262
0.0107208
0.0107037
0.0104922
0.0101001
0.0095383
0.00882955
0.00801499
0.00715443
0.00632082
0.00557357
0.00494158
0.00442302
0.00400002
0.0036527
0.00336326
0.00311965
0.00291698
0.00273404
0.00258517
0.00244267
0.00229717
0.00213864
0.0020032
0.00178428
0.00149451
0.00114122
0.000793633
0.000324623
2.09749e-05
0.000230814
0.000412279
0.00188811
0.00573895
0.00416722
0.00604791
0.0420227
0.00635723
0.00653452
0.00685613
0.0072362
0.00759707
0.00787974
0.00804595
0.00807749
0.00796805
0.00771707
0.00733764
0.00685038
0.00628966
0.00570319
0.00513761
0.00462592
0.0041816
0.00380289
0.00348126
0.00320564
0.00296698
0.00276196
0.00258435
0.00242944
0.00229773
0.00218892
0.00210122
0.00202745
0.00197734
0.0019156
0.00183687
0.00172454
0.00156033
0.00128079
0.00102502
0.000659291
0.000210455
3.12417e-05
0.000208767
0.000225616
0.00188672
0.00456393
0.00467753
0.00488587
0.00514735
0.00542405
0.00568176
0.00588964
0.00602456
0.00607022
0.00601758
0.0058663
0.00562412
0.00530713
0.00494188
0.00455866
0.00418441
0.00383698
0.00352417
0.00324683
0.00300172
0.0027854
0.00259744
0.00243428
0.00228975
0.00216284
0.00205345
0.00196042
0.00188119
0.0018145
0.00175836
0.00171083
0.00167022
0.00163801
0.00160805
0.0015648
0.00148582
0.00132937
0.00105487
0.000667157
0.000408316
2.26243e-05
0.00327958
0.00335189
0.00348516
0.00365855
0.00385415
0.00405467
0.00424137
0.00439645
0.00450456
0.00455313
0.00453599
0.00445196
0.00430625
0.00411109
0.00388271
0.0036386
0.00339383
0.0031587
0.00293883
0.00273603
0.00255145
0.00238836
0.00224574
0.00211878
0.00200593
0.00190645
0.0018192
0.00174246
0.00167442
0.00161361
0.00155871
0.00150904
0.00146419
0.00142522
0.00139224
0.00136371
0.00134111
0.00132161
0.00127423
0.0012206
0.00097733
0.00235643
0.0024022
0.00248706
0.00259995
0.0027324
0.0028761
0.00302095
0.00315612
0.00327082
0.00335499
0.00340121
0.00340505
0.00336531
0.00328566
0.00317305
0.00303653
0.00288563
0.00272868
0.00257193
0.00241921
0.00227396
0.00214159
0.00202333
0.00191634
0.0018198
0.00173312
0.00165551
0.00158587
0.00152301
0.00146579
0.00141316
0.00136425
0.00131833
0.00127479
0.00123341
0.00119429
0.00115792
0.00112625
0.0010992
0.00107562
0.0010605
0.00169145
0.00172048
0.00177459
0.00184749
0.00193528
0.00203405
0.00213858
0.0022429
0.00234063
0.00242503
0.00249028
0.00253175
0.00254635
0.00253334
0.00249453
0.00243355
0.0023551
0.00226414
0.0021653
0.00206219
0.0019585
0.00185987
0.00176868
0.00168383
0.00160544
0.00153345
0.00146749
0.00140703
0.00135142
0.00129998
0.00125207
0.00120709
0.00116451
0.0011238
0.00108453
0.00104646
0.00100933
0.00097284
0.000937598
0.000900848
0.000875082
0.00121256
0.00123115
0.00126572
0.00131251
0.00136991
0.00143613
0.00150842
0.00158358
0.00165811
0.00172803
0.00178952
0.00183919
0.00187414
0.00189245
0.0018934
0.00187775
0.00184719
0.00180393
0.00175052
0.00168933
0.00162313
0.00155654
0.00149212
0.00142984
0.00137048
0.00131437
0.00126159
0.001212
0.00116538
0.00112144
0.00107987
0.00104032
0.00100253
0.000966138
0.000930891
0.000896635
0.000863185
0.000830262
0.000797738
0.000764286
0.000735396
0.000869992
0.000881882
0.000903969
0.00093389
0.000971204
0.00101509
0.00106401
0.00111621
0.00116983
0.00122266
0.0012724
0.00131691
0.00135413
0.00138227
0.00140008
0.00140691
0.00140293
0.00138889
0.00136575
0.00133468
0.00129721
0.00125649
0.00121469
0.00117226
0.00113019
0.00108905
0.00104916
0.00101064
0.000973574
0.000937921
0.000903605
0.000870507
0.000838528
0.000807503
0.000777296
0.000747863
0.000719138
0.000690975
0.000663264
0.0006355
0.000610595
0.00063211
0.000639776
0.00065417
0.000673719
0.000698469
0.000728015
0.000761414
0.000797633
0.000835614
0.000874113
0.000911797
0.000947375
0.000979535
0.00100701
0.0010287
0.0010438
0.00105179
0.00105257
0.0010464
0.00103365
0.00101495
0.000992156
0.000966807
0.000939476
0.000911078
0.000882222
0.000853302
0.000824591
0.000796282
0.000768489
0.000741275
0.000714655
0.000688651
0.000663213
0.000638301
0.000613951
0.000590182
0.000566913
0.000544118
0.000521608
0.00050099
0.00046998
0.000475078
0.000484809
0.00049805
0.000515044
0.000535584
0.00055903
0.000584707
0.000611963
0.000640042
0.000668122
0.000695406
0.000721061
0.000744225
0.000764089
0.000779956
0.000791302
0.000797778
0.000799242
0.00079576
0.00078754
0.000775566
0.000760808
0.000743757
0.000725135
0.000705457
0.000685091
0.000664328
0.000643398
0.000622464
0.000601647
0.000581026
0.000560682
0.000540628
0.000520874
0.000501488
0.000482542
0.000463975
0.000445791
0.000427979
0.000411352
0.000357663
0.000361131
0.000367857
0.000377045
0.000389007
0.000403627
0.000420435
0.000438958
0.000458757
0.000479342
0.000500182
0.000520765
0.000540558
0.000558988
0.000575495
0.000589561
0.000600748
0.000608704
0.000613187
0.000614059
0.000611308
0.00060546
0.000597113
0.000586627
0.000574528
0.000561213
0.000546991
0.000532121
0.000516823
0.000501269
0.000485595
0.000469898
0.000454285
0.000438797
0.000423467
0.000408372
0.000393606
0.000379116
0.000364918
0.000351048
0.00033802
0.000277081
0.000279447
0.00028416
0.000290661
0.00029926
0.000309886
0.00032218
0.000335791
0.000350408
0.000365693
0.000381281
0.000396829
0.000411977
0.000426338
0.000439519
0.000451149
0.00046089
0.000468452
0.000473605
0.000476178
0.000476065
0.000473504
0.000468867
0.000462424
0.000454551
0.00044553
0.000435603
0.000424984
0.00041386
0.000402384
0.000390684
0.000378853
0.000367001
0.000355175
0.000343418
0.000331802
0.000320426
0.000309243
0.00029828
0.000287539
0.000277571
0.000217746
0.000219363
0.000222712
0.000227393
0.000233691
0.000241553
0.000250696
0.000260852
0.000271788
0.000283259
0.000295005
0.000306782
0.000318341
0.000329412
0.00033972
0.000348999
0.000357003
0.000363507
0.000368322
0.000371294
0.000372302
0.000371446
0.000368947
0.000364991
0.00035984
0.000353703
0.00034676
0.000339178
0.000331107
0.000322673
0.000313986
0.000305129
0.000296198
0.000287241
0.000278297
0.000269428
0.00026073
0.000252158
0.000243749
0.000235438
0.000227947
0.000173109
0.00017421
0.000176614
0.000180035
0.00018472
0.000190627
0.000197527
0.000205209
0.000213495
0.000222201
0.000231134
0.000240115
0.000248965
0.000257489
0.000265492
0.000272781
0.000279175
0.000284507
0.000288629
0.000291414
0.000292756
0.000292696
0.000291371
0.000288908
0.000285489
0.000281262
0.000276357
0.000270907
0.000265025
0.000258816
0.000252367
0.000245747
0.000239035
0.000232272
0.000225495
0.000218755
0.000212133
0.000205588
0.000199166
0.000192738
0.0001872
0.000138941
0.000139686
0.000141427
0.000143963
0.000147498
0.000151995
0.000157269
0.00016315
0.000169499
0.000176173
0.000183023
0.000189917
0.00019672
0.000203289
0.000209482
0.000215158
0.000220186
0.000224439
0.000227809
0.000230194
0.000231512
0.000231778
0.000231084
0.000229518
0.000227206
0.000224251
0.00022075
0.000216803
0.000212499
0.000207913
0.000203116
0.000198169
0.000193128
0.00018803
0.000182905
0.000177791
0.00017276
0.000167774
0.00016288
0.000157906
0.000153865
0.000112404
0.000112903
0.000114174
0.000116078
0.000118779
0.000122245
0.000126322
0.000130874
0.000135788
0.000140951
0.000146249
0.000151578
0.000156836
0.000161918
0.000166715
0.000171125
0.000175049
0.000178397
0.000181084
0.000183036
0.000184189
0.00018455
0.000184185
0.000183155
0.000181551
0.000179446
0.000176913
0.000174024
0.000170846
0.000167436
0.000163851
0.000160136
0.000156338
0.000152485
0.0001486
0.000144715
0.000140886
0.000137082
0.000133349
0.000129493
0.000126573
9.15415e-05
9.18702e-05
9.28066e-05
9.42534e-05
9.63436e-05
9.90443e-05
0.000102229
0.000105787
0.000109625
0.000113654
0.000117783
0.000121931
0.000126018
0.000129964
0.000133688
0.000137113
0.000140167
0.000142779
0.000144891
0.000146445
0.000147393
0.000147743
0.000147544
0.000146841
0.0001457
0.000144172
0.000142312
0.000140172
0.000137804
0.000135253
0.000132559
0.000129756
0.000126887
0.000123968
0.000121017
0.00011806
0.000115142
0.000112235
0.000109384
0.00010639
0.000104294
7.49683e-05
7.51806e-05
7.58767e-05
7.6991e-05
7.86273e-05
8.07541e-05
8.32667e-05
8.60726e-05
8.90965e-05
9.22657e-05
9.55075e-05
9.87573e-05
0.000101954
0.000105033
0.000107935
0.0001106
0.000112975
0.000115008
0.000116654
0.000117872
0.000118627
0.000118926
0.00011881
0.000118312
0.000117478
0.000116348
0.000114961
0.000113358
0.000111577
0.000109653
0.000107614
0.000105489
0.000103308
0.000101084
9.88334e-05
9.65731e-05
9.43388e-05
9.21094e-05
8.99235e-05
8.75927e-05
8.60898e-05
6.1685e-05
6.18186e-05
6.23421e-05
6.32123e-05
6.45086e-05
6.62009e-05
6.82016e-05
7.0434e-05
7.28359e-05
7.53477e-05
7.7911e-05
8.04738e-05
8.29875e-05
8.54028e-05
8.76727e-05
8.97529e-05
9.16024e-05
9.31828e-05
9.44614e-05
9.5407e-05
9.59949e-05
9.62336e-05
9.61569e-05
9.57892e-05
9.51653e-05
9.43148e-05
9.32672e-05
9.20533e-05
9.07019e-05
8.92394e-05
8.7686e-05
8.60647e-05
8.43978e-05
8.26969e-05
8.09725e-05
7.92382e-05
7.75213e-05
7.58055e-05
7.41237e-05
7.23066e-05
7.12286e-05
5.09566e-05
5.1038e-05
5.14374e-05
5.21274e-05
5.31668e-05
5.45272e-05
5.61351e-05
5.79263e-05
5.9849e-05
6.18543e-05
6.38949e-05
6.59288e-05
6.79172e-05
6.98215e-05
7.16054e-05
7.32349e-05
7.4679e-05
7.59092e-05
7.69012e-05
7.76323e-05
7.80847e-05
7.82678e-05
7.82105e-05
7.79311e-05
7.74556e-05
7.68066e-05
7.60065e-05
7.50783e-05
7.40439e-05
7.29229e-05
7.17329e-05
7.04874e-05
6.92043e-05
6.78973e-05
6.65691e-05
6.52316e-05
6.39056e-05
6.25791e-05
6.12788e-05
5.98589e-05
5.90805e-05
4.22337e-05
4.22815e-05
4.2592e-05
4.31483e-05
4.39923e-05
4.50972e-05
4.64012e-05
4.78503e-05
4.94012e-05
5.10136e-05
5.26489e-05
5.4273e-05
5.5855e-05
5.73645e-05
5.87732e-05
6.0055e-05
6.11865e-05
6.21464e-05
6.29168e-05
6.34813e-05
6.38271e-05
6.39639e-05
6.39167e-05
6.36992e-05
6.33311e-05
6.28299e-05
6.22126e-05
6.1497e-05
6.06996e-05
5.98351e-05
5.89176e-05
5.79561e-05
5.69654e-05
5.5955e-05
5.49274e-05
5.3892e-05
5.28639e-05
5.18345e-05
5.08252e-05
4.97144e-05
4.91486e-05
3.51001e-05
3.51275e-05
3.53745e-05
3.58312e-05
3.65256e-05
3.74325e-05
3.84996e-05
3.96816e-05
4.09421e-05
4.22476e-05
4.35666e-05
4.48716e-05
4.61375e-05
4.73406e-05
4.84586e-05
4.94717e-05
5.03621e-05
5.11138e-05
5.17139e-05
5.21505e-05
5.24145e-05
5.25152e-05
5.24744e-05
5.23023e-05
5.20141e-05
5.16234e-05
5.11436e-05
5.05881e-05
4.99696e-05
4.92992e-05
4.85876e-05
4.78414e-05
4.70726e-05
4.62869e-05
4.54886e-05
4.46834e-05
4.38826e-05
4.30801e-05
4.22932e-05
4.14226e-05
4.10054e-05
2.92367e-05
2.92528e-05
2.94548e-05
2.98369e-05
3.0416e-05
3.11684e-05
3.20497e-05
3.30216e-05
3.40536e-05
3.5118e-05
3.61888e-05
3.72437e-05
3.82627e-05
3.92268e-05
4.01189e-05
4.09237e-05
4.16278e-05
4.22192e-05
4.26886e-05
4.30276e-05
4.32296e-05
4.33034e-05
4.32683e-05
4.31316e-05
4.2905e-05
4.25993e-05
4.2225e-05
4.17922e-05
4.13107e-05
4.0789e-05
4.02349e-05
3.96551e-05
3.90561e-05
3.84431e-05
3.7822e-05
3.71941e-05
3.65686e-05
3.59418e-05
3.53267e-05
3.46442e-05
3.43344e-05
2.43961e-05
2.4407e-05
2.45775e-05
2.49037e-05
2.53932e-05
2.6024e-05
2.67584e-05
2.7564e-05
2.84151e-05
2.92887e-05
3.01636e-05
3.10216e-05
3.18466e-05
3.26237e-05
3.33396e-05
3.39825e-05
3.45423e-05
3.50103e-05
3.53796e-05
3.56443e-05
3.57999e-05
3.58544e-05
3.58243e-05
3.57153e-05
3.55361e-05
3.52956e-05
3.50019e-05
3.46628e-05
3.4286e-05
3.3878e-05
3.34447e-05
3.29916e-05
3.25231e-05
3.20439e-05
3.15577e-05
3.10659e-05
3.05754e-05
3.00839e-05
2.9601e-05
2.90653e-05
2.88289e-05
2.03844e-05
2.03945e-05
2.05432e-05
2.0827e-05
2.12464e-05
2.17807e-05
2.23981e-05
2.3071e-05
2.37778e-05
2.44996e-05
2.52189e-05
2.59211e-05
2.65931e-05
2.72233e-05
2.78012e-05
2.83179e-05
2.87659e-05
2.91388e-05
2.94317e-05
2.96406e-05
2.97623e-05
2.9804e-05
2.97801e-05
2.96946e-05
2.95545e-05
2.93668e-05
2.91377e-05
2.88736e-05
2.858e-05
2.82622e-05
2.79246e-05
2.75714e-05
2.72059e-05
2.6832e-05
2.64521e-05
2.60677e-05
2.56838e-05
2.52988e-05
2.49203e-05
2.45002e-05
2.43225e-05
1.70487e-05
1.70607e-05
1.71946e-05
1.74461e-05
1.781e-05
1.8267e-05
1.87901e-05
1.93562e-05
1.99471e-05
2.05473e-05
2.11425e-05
2.17206e-05
2.22714e-05
2.27856e-05
2.32552e-05
2.36734e-05
2.40345e-05
2.43339e-05
2.45681e-05
2.47346e-05
2.48307e-05
2.4863e-05
2.48439e-05
2.47763e-05
2.46655e-05
2.45173e-05
2.43368e-05
2.41289e-05
2.3898e-05
2.3648e-05
2.33826e-05
2.31051e-05
2.28179e-05
2.25241e-05
2.22252e-05
2.19233e-05
2.16212e-05
2.13182e-05
2.10198e-05
2.06908e-05
2.05476e-05
1.42675e-05
1.4283e-05
1.4407e-05
1.46334e-05
1.49525e-05
1.53467e-05
1.57931e-05
1.62724e-05
1.67695e-05
1.72715e-05
1.77669e-05
1.8246e-05
1.87005e-05
1.9123e-05
1.95074e-05
1.98484e-05
2.01422e-05
2.03852e-05
2.05754e-05
2.0711e-05
2.07905e-05
2.08194e-05
2.08086e-05
2.07598e-05
2.06773e-05
2.05655e-05
2.04285e-05
2.027e-05
2.00932e-05
1.99013e-05
1.96971e-05
1.94829e-05
1.92611e-05
1.90335e-05
1.88013e-05
1.85668e-05
1.83313e-05
1.80948e-05
1.78619e-05
1.76041e-05
1.75009e-05
1.19433e-05
1.19632e-05
1.20806e-05
1.22867e-05
1.25689e-05
1.29111e-05
1.32943e-05
1.37023e-05
1.41228e-05
1.45451e-05
1.496e-05
1.53594e-05
1.57369e-05
1.60867e-05
1.64038e-05
1.66844e-05
1.69254e-05
1.71244e-05
1.72797e-05
1.73904e-05
1.74549e-05
1.7478e-05
1.7469e-05
1.74293e-05
1.73624e-05
1.72723e-05
1.71623e-05
1.70354e-05
1.68945e-05
1.67421e-05
1.65804e-05
1.64112e-05
1.62363e-05
1.6057e-05
1.58747e-05
1.56902e-05
1.55049e-05
1.53194e-05
1.51357e-05
1.49367e-05
1.48421e-05
9.99768e-06
1.00225e-05
1.01352e-05
1.03244e-05
1.05748e-05
1.08726e-05
1.12025e-05
1.15513e-05
1.19089e-05
1.22663e-05
1.26159e-05
1.29512e-05
1.32669e-05
1.35587e-05
1.38228e-05
1.40564e-05
1.42573e-05
1.44241e-05
1.45561e-05
1.46528e-05
1.47138e-05
1.47427e-05
1.47476e-05
1.4729e-05
1.4689e-05
1.46304e-05
1.45557e-05
1.44671e-05
1.43666e-05
1.4256e-05
1.41368e-05
1.40107e-05
1.38791e-05
1.37432e-05
1.36041e-05
1.34623e-05
1.33195e-05
1.31757e-05
1.30341e-05
1.28757e-05
1.28229e-05
8.36672e-06
8.39623e-06
8.50557e-06
8.67976e-06
8.90238e-06
9.1617e-06
9.44548e-06
9.74351e-06
1.00478e-05
1.03515e-05
1.06481e-05
1.09321e-05
1.11987e-05
1.14444e-05
1.16661e-05
1.18617e-05
1.20295e-05
1.21679e-05
1.22761e-05
1.23536e-05
1.23994e-05
1.24168e-05
1.2413e-05
1.23893e-05
1.23481e-05
1.22924e-05
1.22249e-05
1.21475e-05
1.20622e-05
1.19706e-05
1.18737e-05
1.17729e-05
1.1669e-05
1.15631e-05
1.14555e-05
1.13466e-05
1.1237e-05
1.11277e-05
1.10181e-05
1.09051e-05
1.08313e-05
6.99874e-06
7.03195e-06
7.13738e-06
7.29705e-06
7.49463e-06
7.72057e-06
7.96507e-06
8.21977e-06
8.47834e-06
8.73559e-06
8.98687e-06
9.22805e-06
9.45535e-06
9.66542e-06
9.85567e-06
1.00245e-05
1.01713e-05
1.02962e-05
1.03997e-05
1.04822e-05
1.05437e-05
1.0586e-05
1.0614e-05
1.06269e-05
1.06252e-05
1.06103e-05
1.05834e-05
1.05457e-05
1.04981e-05
1.0442e-05
1.03785e-05
1.03087e-05
1.02338e-05
1.01549e-05
1.00726e-05
9.98727e-06
9.9007e-06
9.81239e-06
9.72645e-06
9.62363e-06
9.61645e-06
5.85235e-06
5.88804e-06
5.9877e-06
6.13072e-06
6.30257e-06
6.4972e-06
6.70768e-06
6.92707e-06
7.14933e-06
7.36921e-06
7.58244e-06
7.78601e-06
7.97779e-06
8.15582e-06
8.31784e-06
8.4612e-06
8.58327e-06
8.68186e-06
8.75582e-06
8.80522e-06
8.82968e-06
8.83274e-06
8.82094e-06
8.79655e-06
8.76232e-06
8.72093e-06
8.67451e-06
8.62467e-06
8.57257e-06
8.51904e-06
8.46479e-06
8.41031e-06
8.35566e-06
8.30123e-06
8.24704e-06
8.19298e-06
8.13855e-06
8.08528e-06
8.02917e-06
7.98304e-06
7.90578e-06
4.89335e-06
4.93135e-06
5.02473e-06
5.14953e-06
5.29313e-06
5.45316e-06
5.6268e-06
5.81067e-06
6.00103e-06
6.19313e-06
6.38148e-06
6.56102e-06
6.72823e-06
6.88173e-06
7.02227e-06
7.15194e-06
7.27306e-06
7.38716e-06
7.49466e-06
7.5947e-06
7.68591e-06
7.7667e-06
7.83797e-06
7.89652e-06
7.94113e-06
7.97184e-06
7.98901e-06
7.99325e-06
7.98548e-06
7.9669e-06
7.9387e-06
7.90206e-06
7.85844e-06
7.8088e-06
7.75458e-06
7.69586e-06
7.63486e-06
7.57059e-06
7.51038e-06
7.42327e-06
7.46819e-06
4.09091e-06
4.12964e-06
4.21682e-06
4.32646e-06
4.44664e-06
4.57542e-06
4.71086e-06
4.85183e-06
4.99843e-06
5.15082e-06
5.30799e-06
5.46703e-06
5.62268e-06
5.76791e-06
5.89521e-06
5.99827e-06
6.07336e-06
6.11983e-06
6.13964e-06
6.13717e-06
6.11449e-06
6.07762e-06
6.03348e-06
5.98645e-06
5.93936e-06
5.89432e-06
5.85279e-06
5.81583e-06
5.78398e-06
5.75743e-06
5.73605e-06
5.71958e-06
5.70738e-06
5.69898e-06
5.69413e-06
5.69247e-06
5.69121e-06
5.69342e-06
5.68942e-06
5.71538e-06
5.61471e-06
3.4186e-06
3.45023e-06
3.52279e-06
3.6142e-06
3.71705e-06
3.8302e-06
3.94921e-06
4.06864e-06
4.18433e-06
4.29436e-06
4.39966e-06
4.50396e-06
4.61276e-06
4.73177e-06
4.86535e-06
5.01538e-06
5.18078e-06
5.35764e-06
5.54021e-06
5.72103e-06
5.89576e-06
6.05806e-06
6.20425e-06
6.3291e-06
6.43128e-06
6.5113e-06
6.57032e-06
6.60983e-06
6.63157e-06
6.63733e-06
6.62883e-06
6.60761e-06
6.57547e-06
6.53349e-06
6.48313e-06
6.42472e-06
6.36141e-06
6.29085e-06
6.22558e-06
6.11581e-06
6.20367e-06
2.86238e-06
2.88099e-06
2.92511e-06
2.97669e-06
3.03709e-06
3.11427e-06
3.21186e-06
3.32917e-06
3.46118e-06
3.59853e-06
3.72889e-06
3.83953e-06
3.92009e-06
3.96465e-06
3.97288e-06
3.94961e-06
3.90316e-06
3.84308e-06
3.77769e-06
3.7147e-06
3.65233e-06
3.59156e-06
3.53175e-06
3.47628e-06
3.4258e-06
3.38082e-06
3.34268e-06
3.31319e-06
3.29377e-06
3.28492e-06
3.28656e-06
3.29858e-06
3.32044e-06
3.3517e-06
3.39191e-06
3.44094e-06
3.49543e-06
3.55888e-06
3.61796e-06
3.72382e-06
3.65673e-06
2.42009e-06
2.44157e-06
2.47466e-06
2.49483e-06
2.50139e-06
2.50332e-06
2.50849e-06
2.52475e-06
2.56119e-06
2.62788e-06
2.73466e-06
2.88888e-06
3.09296e-06
3.34311e-06
3.62968e-06
3.93898e-06
4.25565e-06
4.56473e-06
4.85403e-06
5.11198e-06
5.3396e-06
5.53663e-06
5.69883e-06
5.82673e-06
5.92466e-06
5.99739e-06
6.04819e-06
6.08253e-06
6.10126e-06
6.10905e-06
6.10823e-06
6.09901e-06
6.08179e-06
6.05626e-06
6.02346e-06
5.98357e-06
5.93864e-06
5.8859e-06
5.83457e-06
5.75984e-06
5.76817e-06
2.07642e-06
2.11314e-06
2.16907e-06
2.21659e-06
2.24292e-06
2.24415e-06
2.21886e-06
2.17024e-06
2.10697e-06
2.04193e-06
1.9899e-06
1.96447e-06
1.97442e-06
2.02116e-06
2.09852e-06
2.19521e-06
2.29823e-06
2.39595e-06
2.47999e-06
2.54595e-06
2.58984e-06
2.61088e-06
2.60015e-06
2.56817e-06
2.52267e-06
2.46815e-06
2.4113e-06
2.36448e-06
2.33913e-06
2.33187e-06
2.3332e-06
2.33918e-06
2.3489e-06
2.36165e-06
2.37689e-06
2.39317e-06
2.41169e-06
2.42542e-06
2.45939e-06
2.40648e-06
2.68952e-06
1.78853e-06
1.78175e-06
1.83995e-06
2.02603e-06
2.3671e-06
2.83419e-06
3.37062e-06
3.92375e-06
4.4547e-06
4.93712e-06
5.35426e-06
5.69653e-06
5.96027e-06
6.1462e-06
6.25865e-06
6.30464e-06
6.29312e-06
6.23386e-06
6.1368e-06
6.01008e-06
5.8634e-06
5.73195e-06
5.5948e-06
5.46082e-06
5.33306e-06
5.21124e-06
5.09899e-06
4.97883e-06
4.84781e-06
4.71687e-06
4.58877e-06
4.46306e-06
4.33748e-06
4.20867e-06
4.07554e-06
3.9365e-06
3.78911e-06
3.63134e-06
3.45086e-06
3.33093e-06
2.90432e-06
25.9633
24.1842
19.7318
16.5675
14.2196
12.2208
10.4029
8.71618
7.141
5.68629
4.35902
3.17504
2.15688
1.3285
0.712335
0.311624
0.0955104
0.0161482
0.000286933
0.00120899
0.000205545
1.00681e-05
3.11543e-05
5.76842e-05
7.80767e-05
7.56961e-05
6.3302e-05
5.26e-05
4.66855e-05
4.2566e-05
3.86041e-05
3.44843e-05
3.04001e-05
2.652e-05
2.29228e-05
1.96519e-05
1.67548e-05
1.42453e-05
1.21293e-05
1.03763e-05
8.95171e-06
7.80542e-06
6.89028e-06
6.1424e-06
5.52813e-06
4.854e-06
4.30122e-06
3.90892e-06
3.53429e-06
3.15389e-06
2.78005e-06
2.4314e-06
2.11127e-06
1.8258e-06
1.57403e-06
1.36073e-06
1.18634e-06
1.04603e-06
9.6273e-07
9.1747e-07
9.02629e-07
9.21004e-07
9.58979e-07
1.01481e-06
1.07811e-06
1.14581e-06
1.21709e-06
1.28678e-06
1.36276e-06
1.4251e-06
1.51762e-06
1.54212e-06
1.69934e-06
1.63404e-06
14.8427
23.2924
22.621
20.0139
17.5797
15.4978
13.6521
11.95
10.3405
8.80666
7.34196
5.95051
4.64643
3.45262
2.39842
1.51744
0.836219
0.377973
0.124066
0.0243291
0.00114676
0.00105645
0.000363057
5.47508e-05
2.56557e-06
3.28833e-05
5.54704e-05
5.93156e-05
5.38317e-05
4.56268e-05
3.94484e-05
3.48328e-05
3.08883e-05
2.72146e-05
2.37239e-05
2.04383e-05
1.74284e-05
1.47521e-05
1.24554e-05
1.0545e-05
8.99695e-06
7.76254e-06
6.78977e-06
6.00816e-06
5.39993e-06
4.61085e-06
4.08947e-06
3.65372e-06
3.28356e-06
2.93522e-06
2.59063e-06
2.26574e-06
1.96566e-06
1.69998e-06
1.46763e-06
1.27502e-06
1.11743e-06
1.01283e-06
9.4965e-07
9.08117e-07
8.96318e-07
9.16281e-07
9.56963e-07
1.01419e-06
1.07918e-06
1.14824e-06
1.22061e-06
1.29137e-06
1.36787e-06
1.43183e-06
1.52294e-06
1.55205e-06
1.70144e-06
1.64816e-06
3.62905
9.1226
14.0295
15.5777
15.4702
14.7303
13.7877
12.7715
11.7016
10.5815
9.41784
8.22271
7.01255
5.80769
4.63327
3.52041
2.5037
1.62629
0.927888
0.438398
0.15518
0.0354348
0.00291614
0.000170153
0.00012205
1.53476e-05
7.46361e-08
2.12882e-05
3.9393e-05
4.55513e-05
4.52737e-05
3.9845e-05
3.3694e-05
2.85971e-05
2.45067e-05
2.10546e-05
1.80249e-05
1.53284e-05
1.2946e-05
1.08937e-05
9.18136e-06
7.80002e-06
6.71866e-06
5.87439e-06
5.23698e-06
4.65577e-06
4.09361e-06
3.59114e-06
3.19119e-06
2.85152e-06
2.52904e-06
2.21875e-06
1.92797e-06
1.66691e-06
1.43855e-06
1.24852e-06
1.09624e-06
1.0068e-06
9.39892e-07
9.01104e-07
8.92468e-07
9.13041e-07
9.56445e-07
1.01467e-06
1.08126e-06
1.15166e-06
1.22502e-06
1.29682e-06
1.37378e-06
1.43947e-06
1.5289e-06
1.56287e-06
1.70391e-06
1.66317e-06
10.3396
6.89966
4.3705
5.81651
7.76817
8.9978
9.66875
9.97906
10.0171
9.82415
9.43278
8.8746
8.17671
7.36267
6.45662
5.48749
4.48779
3.49594
2.55448
1.71023
1.0137
0.505607
0.195981
0.0527963
0.00733389
1.30032e-06
0.000806717
2.13449e-06
9.08842e-06
5.82431e-06
2.31035e-05
2.95056e-05
3.327e-05
3.24883e-05
2.80709e-05
2.3269e-05
1.92267e-05
1.59611e-05
1.33027e-05
1.11401e-05
9.37132e-06
7.92169e-06
6.74716e-06
5.80868e-06
5.07608e-06
4.61164e-06
4.12656e-06
3.63359e-06
3.2129e-06
2.86766e-06
2.56044e-06
2.26441e-06
1.97963e-06
1.71552e-06
1.48056e-06
1.2808e-06
1.1179e-06
1.00604e-06
9.31295e-07
8.94739e-07
8.9003e-07
9.12345e-07
9.57255e-07
1.01671e-06
1.08479e-06
1.15647e-06
1.23078e-06
1.30357e-06
1.38089e-06
1.44816e-06
1.5361e-06
1.57448e-06
1.70793e-06
1.67808e-06
13.4918
13.0206
10.5482
7.38029
4.54399
2.79741
2.82311
3.85421
4.95343
5.85484
6.50804
6.9163
7.09086
7.04386
6.79119
6.35672
5.76905
5.05965
4.26387
3.4216
2.57952
1.78975
1.11014
0.588367
0.251982
0.0766908
0.0141023
0.000382145
5.75253e-06
4.90863e-05
4.59116e-05
2.0004e-05
1.07519e-05
1.8289e-05
2.23641e-05
2.4546e-05
2.28341e-05
1.90737e-05
1.52675e-05
1.21376e-05
9.70945e-06
7.90739e-06
6.60615e-06
5.65494e-06
4.91232e-06
4.43487e-06
4.00832e-06
3.55682e-06
3.12764e-06
2.7656e-06
2.46609e-06
2.19731e-06
1.94047e-06
1.6948e-06
1.47006e-06
1.27563e-06
1.11802e-06
9.94023e-07
9.18376e-07
8.87867e-07
8.89003e-07
9.14255e-07
9.60039e-07
1.02034e-06
1.08961e-06
1.16256e-06
1.23783e-06
1.31158e-06
1.38921e-06
1.45792e-06
1.54453e-06
1.58681e-06
1.71349e-06
1.69325e-06
14.661
15.0959
14.5589
13.2607
11.3912
9.20781
6.98665
4.88569
3.0225
1.62742
1.4745
2.36768
3.34251
4.15939
4.76171
5.1372
5.28885
5.22598
4.96598
4.5349
3.96635
3.29989
2.58309
1.86966
1.22165
0.695237
0.326964
0.116663
0.0282328
0.00255298
9.0341e-05
0.000191199
1.48095e-05
7.29711e-06
1.19649e-06
1.00964e-05
1.27052e-05
1.47323e-05
1.58309e-05
1.46579e-05
1.20791e-05
9.42946e-06
7.25412e-06
5.67241e-06
4.60546e-06
3.99766e-06
3.63773e-06
3.33036e-06
2.99595e-06
2.65508e-06
2.34679e-06
2.07888e-06
1.8395e-06
1.61753e-06
1.41364e-06
1.23417e-06
1.08787e-06
9.71873e-07
9.03702e-07
8.81213e-07
8.90148e-07
9.19892e-07
9.66757e-07
1.02698e-06
1.09655e-06
1.1704e-06
1.24655e-06
1.32123e-06
1.39911e-06
1.46916e-06
1.55447e-06
1.60014e-06
1.72072e-06
1.70941e-06
13.7724
13.7053
13.5175
13.2806
12.8794
12.2318
11.2977
10.0894
8.66413
7.09898
5.48496
3.90398
2.42637
1.17721
0.852185
1.65211
2.50168
3.19518
3.68677
3.96297
4.0257
3.88754
3.57148
3.11061
2.54845
1.93905
1.34275
0.822889
0.428322
0.1777
0.0548055
0.0103934
0.000291953
9.9833e-06
6.60364e-05
6.40383e-05
2.40742e-05
2.64828e-06
6.27723e-06
6.38046e-06
7.61543e-06
8.83428e-06
8.58919e-06
7.23005e-06
5.62804e-06
4.30989e-06
3.42327e-06
2.89697e-06
2.57875e-06
2.34542e-06
2.13716e-06
1.93448e-06
1.73367e-06
1.53497e-06
1.34626e-06
1.17837e-06
1.04294e-06
9.4334e-07
8.87432e-07
8.74157e-07
8.92516e-07
9.29236e-07
9.78752e-07
1.03862e-06
1.1073e-06
1.18106e-06
1.2576e-06
1.333e-06
1.41101e-06
1.48219e-06
1.56626e-06
1.61471e-06
1.72983e-06
1.72701e-06
8.2193
7.94751
7.76178
7.79355
7.99352
8.32333
8.68984
8.98486
9.10164
8.96116
8.52675
7.80626
6.84291
5.69877
4.45011
3.17719
1.95053
0.866402
0.581412
1.32064
2.03081
2.5788
2.93308
3.08406
3.03731
2.81205
2.44053
1.96929
1.45612
0.965904
0.556388
0.268791
0.100599
0.0267288
0.00323004
5.55934e-05
0.000239527
2.02285e-06
2.31427e-06
5.49645e-06
5.58141e-06
3.54629e-06
2.71551e-06
2.86457e-06
3.9483e-06
4.54528e-06
4.21362e-06
3.49155e-06
2.77772e-06
2.224e-06
1.85151e-06
1.61898e-06
1.47123e-06
1.35675e-06
1.24339e-06
1.12315e-06
1.00998e-06
9.22677e-07
8.75369e-07
8.70515e-07
8.98703e-07
9.43964e-07
9.97538e-07
1.05696e-06
1.12327e-06
1.19532e-06
1.27136e-06
1.34724e-06
1.4254e-06
1.49754e-06
1.58041e-06
1.63082e-06
1.74107e-06
1.74632e-06
1.70738
1.63989
1.58488
1.60354
1.69385
1.87009
2.16094
2.58053
3.12673
3.77482
4.47078
5.13266
5.66458
5.97735
6.00905
5.73941
5.19155
4.41596
3.48621
2.48482
1.48657
0.584879
0.483506
1.14268
1.70917
2.11146
2.32786
2.35518
2.20725
1.91552
1.52665
1.10265
0.706773
0.389376
0.176296
0.0621315
0.0151632
0.00139948
0.000263728
0.00048845
7.32327e-05
2.04689e-06
4.07749e-06
3.74266e-06
1.9039e-06
3.49844e-06
2.98032e-06
1.62536e-06
2.17767e-06
2.51881e-06
2.29514e-06
1.86407e-06
1.47917e-06
1.22814e-06
1.08333e-06
9.93686e-07
9.31217e-07
8.84884e-07
8.58889e-07
8.62593e-07
8.99354e-07
9.57423e-07
1.02259e-06
1.08699e-06
1.15152e-06
1.21888e-06
1.29068e-06
1.36453e-06
1.44188e-06
1.51481e-06
1.59696e-06
1.64877e-06
1.75489e-06
1.76781e-06
0.0539635
0.0469258
0.0403182
0.0377277