/*--------------------------------*- C++ -*----------------------------------*\
| =========                 |                                                 |
| \\      /  F ield         | OpenFOAM: The Open Source CFD Toolbox           |
|  \\    /   O peration     | Version:  2312                                  |
|   \\  /    A nd           | Website:  www.openfoam.com                      |
|    \\/     M anipulation  |                                                 |
\*---------------------------------------------------------------------------*/
FoamFile
{
    version     2.0;
    format      ascii;
    arch        "LSB;label=32;scalar=64";
    class       volScalarField;
    location    "250";
    object      turbulenceProperties:nuEff;
}
// * * * * * * * * * * * * * * * * * * * * * * * * * * * * * * * * * * * * * //

dimensions      [0 2 -1 0 0 0 0];

internalField   nonuniform List<scalar> 
11040
(
3.7527e-05
7.05845e-05
0.000119413
0.000191234
0.00031622
0.000760877
0.000922835
0.000942315
0.00100742
0.00120183
0.00158136
0.00171825
0.00173322
0.00174463
0.00177589
0.00181034
0.00183643
0.00184938
0.00184969
0.00183994
0.00181942
0.00179062
0.00176024
0.00173014
0.00169883
0.0016653
0.001629
0.00158964
0.00154648
0.00149863
0.00144521
0.00138533
0.00131792
0.00123941
0.00112789
0.000894107
0.000747492
0.000685219
0.000622889
0.000596694
0.000748012
1.52533e-05
1.61158e-05
3.32043e-05
9.4616e-05
0.000176736
0.000400038
0.000737678
0.00119573
0.00188319
0.00278579
0.0034948
0.00387535
0.00404749
0.00413388
0.0041923
0.00422606
0.00422011
0.00417037
0.00409208
0.00400597
0.00392531
0.00385794
0.00379845
0.00373887
0.00367842
0.00362277
0.00357429
0.00353217
0.00349453
0.00345992
0.00342752
0.00339694
0.0033676
0.00333708
0.00329543
0.00320918
0.00312925
0.00306782
0.00304423
0.00302797
0.00374131
1.63575e-05
1.66124e-05
1.60176e-05
1.92967e-05
3.24035e-05
8.13738e-05
0.000197868
0.000372265
0.000615581
0.000937673
0.00138086
0.00195057
0.00261871
0.00332651
0.00399128
0.00453495
0.00491828
0.00515326
0.00529333
0.00539574
0.005486
0.00556375
0.00562542
0.00567265
0.00570447
0.00572838
0.00574859
0.00576597
0.0057795
0.00578837
0.00579259
0.00579289
0.00579042
0.00578507
0.00577502
0.00575313
0.00573277
0.00571338
0.00572102
0.00568378
0.00621402
1.61437e-05
1.61966e-05
1.6185e-05
1.55372e-05
1.49773e-05
1.34727e-05
1.38315e-05
2.19001e-05
5.01892e-05
9.70012e-05
0.000153744
0.00022385
0.000335486
0.000534644
0.000867361
0.00136567
0.00202852
0.0028134
0.00364173
0.00442238
0.00508536
0.00558756
0.00594508
0.00621753
0.00644166
0.00663776
0.00681415
0.00697306
0.0071153
0.00724248
0.00735704
0.00746147
0.0075578
0.00764669
0.00772792
0.00779937
0.00786636
0.0079261
0.00800623
0.00804029
0.00838604
1.61452e-05
1.61493e-05
1.61801e-05
1.61379e-05
1.5877e-05
1.4882e-05
1.29219e-05
1.10835e-05
1.02407e-05
1.00286e-05
1.00006e-05
2.2394e-05
1.09548e-05
1.21743e-05
1.02039e-05
1.89402e-05
0.000112887
0.000295589
0.000604645
0.00108974
0.00178198
0.00260859
0.00345325
0.00425896
0.00498749
0.00562041
0.00616003
0.00661968
0.00701771
0.00737192
0.00769635
0.00800008
0.00828775
0.00856133
0.00882077
0.00906419
0.0092938
0.00950812
0.00972832
0.00991795
0.0101855
1.61183e-05
1.61202e-05
1.61229e-05
1.61288e-05
1.61379e-05
1.61252e-05
1.58722e-05
1.50735e-05
1.39248e-05
1.2787e-05
1.18803e-05
1.12557e-05
1.10327e-05
1.06112e-05
1.03477e-05
1.00054e-05
1.26694e-05
1.00335e-05
1.00209e-05
1.07134e-05
8.89971e-05
0.000269333
0.000544898
0.000941057
0.00145332
0.00206945
0.00276709
0.00351837
0.00429463
0.00506955
0.00582211
0.00653857
0.00721186
0.00784269
0.00843424
0.00898931
0.00951235
0.0100086
0.0104878
0.0109405
0.0113625
1.61139e-05
1.61173e-05
1.61207e-05
1.61246e-05
1.61269e-05
1.61402e-05
1.61895e-05
1.62542e-05
1.62678e-05
1.62224e-05
1.61394e-05
1.5999e-05
1.56571e-05
1.55284e-05
1.53304e-05
1.46905e-05
1.37399e-05
1.26096e-05
1.13457e-05
1.00706e-05
1.16752e-05
3.48363e-05
1.85404e-05
1.67666e-05
2.04031e-05
0.000121247
0.000282826
0.000521203
0.000861092
0.00131623
0.00189461
0.00259751
0.00341383
0.00432861
0.00531827
0.00635031
0.00738946
0.0084153
0.00940122
0.0103254
0.0112352
1.61135e-05
1.61165e-05
1.61185e-05
1.61204e-05
1.61225e-05
1.61238e-05
1.61273e-05
1.61467e-05
1.61881e-05
1.62552e-05
1.63367e-05
1.64115e-05
1.64718e-05
1.65356e-05
1.65781e-05
1.66818e-05
1.67017e-05
1.64256e-05
1.62392e-05
1.5235e-05
1.37294e-05
1.20914e-05
1.12153e-05
1.00158e-05
1.01533e-05
1.22065e-05
1.00011e-05
8.53053e-05
0.000161413
1.08339e-05
7.81346e-05
0.0002348
0.000463764
0.000819015
0.00134053
0.00204813
0.0029491
0.00404892
0.0053177
0.00667442
0.00830087
1.61128e-05
1.61149e-05
1.61159e-05
1.61167e-05
1.61178e-05
1.61191e-05
1.61203e-05
1.61208e-05
1.61223e-05
1.61272e-05
1.6138e-05
1.61548e-05
1.61755e-05
1.62017e-05
1.62319e-05
1.62739e-05
1.63242e-05
1.63982e-05
1.64501e-05
1.65877e-05
1.67254e-05
1.63592e-05
1.56721e-05
1.50874e-05
1.4008e-05
1.2886e-05
1.16374e-05
1.06445e-05
1.00019e-05
1.00246e-05
1.05572e-05
1.85194e-05
6.59271e-05
2.97818e-05
3.54995e-05
9.29376e-05
0.000297611
0.000639691
0.00119814
0.00195278
0.0032569
1.61118e-05
1.61127e-05
1.61125e-05
1.61122e-05
1.61123e-05
1.61127e-05
1.61133e-05
1.6114e-05
1.61144e-05
1.6114e-05
1.61125e-05
1.61114e-05
1.61109e-05
1.61112e-05
1.61125e-05
1.61148e-05
1.61196e-05
1.61295e-05
1.61482e-05
1.61794e-05
1.62333e-05
1.63286e-05
1.64131e-05
1.65644e-05
1.66196e-05
1.64966e-05
1.61431e-05
1.57853e-05
1.48794e-05
1.36132e-05
1.22174e-05
1.11304e-05
1.0202e-05
1.00009e-05
1.01234e-05
1.04565e-05
2.09616e-05
9.38118e-05
6.62773e-05
9.01058e-05
0.00036588
1.61102e-05
1.61098e-05
1.61087e-05
1.61077e-05
1.61072e-05
1.61072e-05
1.61074e-05
1.61079e-05
1.61083e-05
1.61087e-05
1.61088e-05
1.61083e-05
1.61079e-05
1.61074e-05
1.61067e-05
1.61057e-05
1.61045e-05
1.61029e-05
1.61017e-05
1.61001e-05
1.60984e-05
1.61033e-05
1.6118e-05
1.61501e-05
1.6199e-05
1.62607e-05
1.63393e-05
1.64128e-05
1.65572e-05
1.65585e-05
1.63766e-05
1.59077e-05
1.50689e-05
1.35943e-05
1.24358e-05
1.10884e-05
1.01231e-05
1.00031e-05
1.016e-05
1.02441e-05
2.32048e-05
1.6108e-05
1.61065e-05
1.6105e-05
1.61039e-05
1.61034e-05
1.61032e-05
1.61033e-05
1.61036e-05
1.61039e-05
1.61041e-05
1.61044e-05
1.61042e-05
1.61043e-05
1.61045e-05
1.61048e-05
1.6105e-05
1.61052e-05
1.61053e-05
1.61051e-05
1.61046e-05
1.61032e-05
1.61007e-05
1.60983e-05
1.6096e-05
1.60952e-05
1.60974e-05
1.61059e-05
1.61223e-05
1.61554e-05
1.62061e-05
1.62729e-05
1.63528e-05
1.64635e-05
1.6563e-05
1.65251e-05
1.6167e-05
1.51756e-05
1.34569e-05
1.14633e-05
1.06041e-05
1.0002e-05
1.61052e-05
1.61034e-05
1.6102e-05
1.61013e-05
1.61011e-05
1.61011e-05
1.61012e-05
1.61015e-05
1.61018e-05
1.6102e-05
1.61022e-05
1.61023e-05
1.61022e-05
1.61022e-05
1.61024e-05
1.61027e-05
1.6103e-05
1.61034e-05
1.61038e-05
1.61043e-05
1.61046e-05
1.61046e-05
1.61044e-05
1.61037e-05
1.61027e-05
1.61012e-05
1.60994e-05
1.60978e-05
1.60967e-05
1.60972e-05
1.61e-05
1.61093e-05
1.61306e-05
1.61804e-05
1.62654e-05
1.63738e-05
1.6512e-05
1.66538e-05
1.64733e-05
1.62287e-05
1.42061e-05
1.61024e-05
1.61009e-05
1.61002e-05
1.61e-05
1.61001e-05
1.61002e-05
1.61005e-05
1.61007e-05
1.61009e-05
1.61011e-05
1.61013e-05
1.61015e-05
1.61016e-05
1.61014e-05
1.61015e-05
1.61016e-05
1.61017e-05
1.6102e-05
1.61022e-05
1.61026e-05
1.61029e-05
1.61032e-05
1.61034e-05
1.61036e-05
1.61037e-05
1.61038e-05
1.61037e-05
1.61035e-05
1.61031e-05
1.61023e-05
1.61009e-05
1.60989e-05
1.60967e-05
1.60954e-05
1.60983e-05
1.61093e-05
1.61355e-05
1.62008e-05
1.63058e-05
1.64726e-05
1.66394e-05
1.61e-05
1.60994e-05
1.60994e-05
1.60996e-05
1.60998e-05
1.60999e-05
1.61001e-05
1.61002e-05
1.61004e-05
1.61006e-05
1.61008e-05
1.6101e-05
1.61011e-05
1.61012e-05
1.61012e-05
1.61011e-05
1.61011e-05
1.61012e-05
1.61013e-05
1.61015e-05
1.61016e-05
1.61017e-05
1.61017e-05
1.61017e-05
1.61017e-05
1.61017e-05
1.61018e-05
1.6102e-05
1.61021e-05
1.61022e-05
1.61023e-05
1.61023e-05
1.6102e-05
1.61012e-05
1.60998e-05
1.60976e-05
1.6095e-05
1.60924e-05
1.60991e-05
1.61096e-05
1.61806e-05
1.60984e-05
1.60989e-05
1.60992e-05
1.60994e-05
1.60995e-05
1.60995e-05
1.60996e-05
1.60996e-05
1.60997e-05
1.60998e-05
1.60999e-05
1.61e-05
1.61002e-05
1.61003e-05
1.61005e-05
1.61006e-05
1.61007e-05
1.61007e-05
1.61007e-05
1.61007e-05
1.61006e-05
1.61006e-05
1.61007e-05
1.61008e-05
1.61009e-05
1.6101e-05
1.6101e-05
1.61011e-05
1.61012e-05
1.61013e-05
1.61014e-05
1.61015e-05
1.61016e-05
1.61017e-05
1.61018e-05
1.61017e-05
1.61014e-05
1.61002e-05
1.60985e-05
1.60951e-05
1.60934e-05
1.60974e-05
1.60988e-05
1.60991e-05
1.60991e-05
1.60991e-05
1.6099e-05
1.60989e-05
1.60987e-05
1.60987e-05
1.60987e-05
1.60987e-05
1.60987e-05
1.60987e-05
1.60988e-05
1.60988e-05
1.60988e-05
1.60988e-05
1.60988e-05
1.60988e-05
1.6099e-05
1.60991e-05
1.60991e-05
1.60992e-05
1.60992e-05
1.60993e-05
1.60993e-05
1.60993e-05
1.60993e-05
1.60993e-05
1.60993e-05
1.60993e-05
1.60993e-05
1.60993e-05
1.60993e-05
1.60994e-05
1.60994e-05
1.60995e-05
1.60996e-05
1.60996e-05
1.60995e-05
1.60988e-05
1.60967e-05
1.60983e-05
1.60987e-05
1.60987e-05
1.60986e-05
1.60985e-05
1.60984e-05
1.60984e-05
1.60984e-05
1.60984e-05
1.60984e-05
1.60985e-05
1.60986e-05
1.60987e-05
1.60988e-05
1.60989e-05
1.6099e-05
1.60992e-05
1.60994e-05
1.60996e-05
1.60998e-05
1.61e-05
1.61002e-05
1.61003e-05
1.61005e-05
1.61006e-05
1.61008e-05
1.61009e-05
1.6101e-05
1.61012e-05
1.61013e-05
1.61014e-05
1.61015e-05
1.61016e-05
1.61017e-05
1.61018e-05
1.61019e-05
1.61019e-05
1.6102e-05
1.61021e-05
1.61023e-05
1.60962e-05
1.60978e-05
1.6098e-05
1.60979e-05
1.60977e-05
1.60975e-05
1.60974e-05
1.60973e-05
1.60973e-05
1.60973e-05
1.60974e-05
1.60974e-05
1.60975e-05
1.60976e-05
1.60977e-05
1.60979e-05
1.6098e-05
1.60981e-05
1.60983e-05
1.60985e-05
1.60987e-05
1.60989e-05
1.6099e-05
1.60992e-05
1.60994e-05
1.60996e-05
1.60998e-05
1.60999e-05
1.61001e-05
1.61003e-05
1.61005e-05
1.61007e-05
1.61008e-05
1.6101e-05
1.61012e-05
1.61014e-05
1.61016e-05
1.61018e-05
1.6102e-05
1.61021e-05
1.61024e-05
1.60959e-05
1.60973e-05
1.60974e-05
1.60971e-05
1.60969e-05
1.60967e-05
1.60966e-05
1.60965e-05
1.60965e-05
1.60966e-05
1.60966e-05
1.60967e-05
1.60968e-05
1.60969e-05
1.6097e-05
1.60971e-05
1.60973e-05
1.60974e-05
1.60976e-05
1.60977e-05
1.60979e-05
1.6098e-05
1.60982e-05
1.60984e-05
1.60985e-05
1.60986e-05
1.60988e-05
1.60989e-05
1.60991e-05
1.60992e-05
1.60993e-05
1.60995e-05
1.60996e-05
1.60997e-05
1.60999e-05
1.61e-05
1.61002e-05
1.61003e-05
1.61005e-05
1.61007e-05
1.61009e-05
1.60956e-05
1.60968e-05
1.60967e-05
1.60964e-05
1.60961e-05
1.60959e-05
1.60959e-05
1.60958e-05
1.60959e-05
1.60959e-05
1.6096e-05
1.60961e-05
1.60962e-05
1.60963e-05
1.60964e-05
1.60966e-05
1.60967e-05
1.60969e-05
1.6097e-05
1.60972e-05
1.60973e-05
1.60975e-05
1.60976e-05
1.60978e-05
1.60979e-05
1.60981e-05
1.60982e-05
1.60983e-05
1.60984e-05
1.60986e-05
1.60987e-05
1.60988e-05
1.60989e-05
1.6099e-05
1.60991e-05
1.60993e-05
1.60994e-05
1.60995e-05
1.60996e-05
1.60998e-05
1.60999e-05
1.60954e-05
1.60962e-05
1.6096e-05
1.60957e-05
1.60954e-05
1.60953e-05
1.60952e-05
1.60952e-05
1.60953e-05
1.60954e-05
1.60955e-05
1.60956e-05
1.60957e-05
1.60958e-05
1.6096e-05
1.60961e-05
1.60963e-05
1.60964e-05
1.60966e-05
1.60967e-05
1.60969e-05
1.60971e-05
1.60972e-05
1.60974e-05
1.60975e-05
1.60976e-05
1.60978e-05
1.60979e-05
1.6098e-05
1.60981e-05
1.60983e-05
1.60984e-05
1.60985e-05
1.60986e-05
1.60987e-05
1.60988e-05
1.6099e-05
1.60991e-05
1.60992e-05
1.60993e-05
1.60994e-05
1.6095e-05
1.60956e-05
1.60953e-05
1.6095e-05
1.60947e-05
1.60946e-05
1.60946e-05
1.60947e-05
1.60948e-05
1.60949e-05
1.6095e-05
1.60951e-05
1.60953e-05
1.60954e-05
1.60956e-05
1.60957e-05
1.60959e-05
1.60961e-05
1.60962e-05
1.60964e-05
1.60966e-05
1.60967e-05
1.60969e-05
1.60971e-05
1.60972e-05
1.60973e-05
1.60975e-05
1.60976e-05
1.60977e-05
1.60979e-05
1.6098e-05
1.60981e-05
1.60982e-05
1.60983e-05
1.60984e-05
1.60986e-05
1.60987e-05
1.60988e-05
1.60989e-05
1.6099e-05
1.60991e-05
1.60946e-05
1.60949e-05
1.60946e-05
1.60943e-05
1.60941e-05
1.60941e-05
1.60941e-05
1.60942e-05
1.60943e-05
1.60944e-05
1.60946e-05
1.60947e-05
1.60949e-05
1.60951e-05
1.60952e-05
1.60954e-05
1.60956e-05
1.60958e-05
1.60959e-05
1.60961e-05
1.60963e-05
1.60965e-05
1.60966e-05
1.60968e-05
1.6097e-05
1.60971e-05
1.60973e-05
1.60974e-05
1.60975e-05
1.60977e-05
1.60978e-05
1.60979e-05
1.6098e-05
1.60981e-05
1.60983e-05
1.60984e-05
1.60985e-05
1.60986e-05
1.60987e-05
1.60989e-05
1.60989e-05
1.60941e-05
1.60943e-05
1.60939e-05
1.60937e-05
1.60935e-05
1.60935e-05
1.60936e-05
1.60937e-05
1.60939e-05
1.6094e-05
1.60942e-05
1.60944e-05
1.60946e-05
1.60948e-05
1.60949e-05
1.60951e-05
1.60953e-05
1.60955e-05
1.60957e-05
1.60959e-05
1.60961e-05
1.60963e-05
1.60964e-05
1.60966e-05
1.60968e-05
1.60969e-05
1.60971e-05
1.60972e-05
1.60974e-05
1.60975e-05
1.60976e-05
1.60978e-05
1.60979e-05
1.6098e-05
1.60981e-05
1.60983e-05
1.60984e-05
1.60985e-05
1.60986e-05
1.60987e-05
1.60988e-05
1.60935e-05
1.60936e-05
1.60933e-05
1.6093e-05
1.6093e-05
1.6093e-05
1.60931e-05
1.60933e-05
1.60934e-05
1.60936e-05
1.60938e-05
1.6094e-05
1.60942e-05
1.60945e-05
1.60947e-05
1.60949e-05
1.60951e-05
1.60953e-05
1.60955e-05
1.60957e-05
1.60959e-05
1.60961e-05
1.60962e-05
1.60964e-05
1.60966e-05
1.60968e-05
1.60969e-05
1.60971e-05
1.60972e-05
1.60974e-05
1.60975e-05
1.60976e-05
1.60978e-05
1.60979e-05
1.6098e-05
1.60982e-05
1.60983e-05
1.60984e-05
1.60985e-05
1.60987e-05
1.60987e-05
1.60929e-05
1.60929e-05
1.60926e-05
1.60924e-05
1.60924e-05
1.60925e-05
1.60926e-05
1.60928e-05
1.6093e-05
1.60932e-05
1.60935e-05
1.60937e-05
1.60939e-05
1.60941e-05
1.60944e-05
1.60946e-05
1.60948e-05
1.6095e-05
1.60952e-05
1.60954e-05
1.60957e-05
1.60959e-05
1.60961e-05
1.60962e-05
1.60964e-05
1.60966e-05
1.60968e-05
1.60969e-05
1.60971e-05
1.60972e-05
1.60974e-05
1.60975e-05
1.60977e-05
1.60978e-05
1.60979e-05
1.6098e-05
1.60982e-05
1.60983e-05
1.60984e-05
1.60986e-05
1.60986e-05
1.60923e-05
1.60922e-05
1.6092e-05
1.60918e-05
1.60919e-05
1.6092e-05
1.60922e-05
1.60924e-05
1.60926e-05
1.60928e-05
1.60931e-05
1.60933e-05
1.60936e-05
1.60938e-05
1.60941e-05
1.60943e-05
1.60945e-05
1.60948e-05
1.6095e-05
1.60952e-05
1.60954e-05
1.60956e-05
1.60958e-05
1.6096e-05
1.60962e-05
1.60964e-05
1.60966e-05
1.60967e-05
1.60969e-05
1.60971e-05
1.60972e-05
1.60974e-05
1.60975e-05
1.60976e-05
1.60978e-05
1.60979e-05
1.6098e-05
1.60982e-05
1.60983e-05
1.60984e-05
1.60985e-05
1.60916e-05
1.60915e-05
1.60913e-05
1.60912e-05
1.60913e-05
1.60915e-05
1.60917e-05
1.60919e-05
1.60922e-05
1.60924e-05
1.60927e-05
1.60929e-05
1.60932e-05
1.60935e-05
1.60937e-05
1.6094e-05
1.60942e-05
1.60944e-05
1.60947e-05
1.60949e-05
1.60951e-05
1.60954e-05
1.60956e-05
1.60958e-05
1.6096e-05
1.60962e-05
1.60963e-05
1.60965e-05
1.60967e-05
1.60968e-05
1.6097e-05
1.60972e-05
1.60973e-05
1.60974e-05
1.60976e-05
1.60977e-05
1.60978e-05
1.6098e-05
1.60981e-05
1.60982e-05
1.60983e-05
1.60909e-05
1.60908e-05
1.60906e-05
1.60906e-05
1.60907e-05
1.60909e-05
1.60911e-05
1.60914e-05
1.60917e-05
1.60919e-05
1.60922e-05
1.60925e-05
1.60928e-05
1.6093e-05
1.60933e-05
1.60936e-05
1.60938e-05
1.60941e-05
1.60943e-05
1.60946e-05
1.60948e-05
1.6095e-05
1.60953e-05
1.60955e-05
1.60957e-05
1.60959e-05
1.6096e-05
1.60962e-05
1.60964e-05
1.60966e-05
1.60967e-05
1.60969e-05
1.6097e-05
1.60972e-05
1.60973e-05
1.60974e-05
1.60976e-05
1.60977e-05
1.60978e-05
1.6098e-05
1.6098e-05
1.60902e-05
1.60901e-05
1.60899e-05
1.609e-05
1.60901e-05
1.60903e-05
1.60906e-05
1.60908e-05
1.60911e-05
1.60914e-05
1.60917e-05
1.6092e-05
1.60923e-05
1.60926e-05
1.60928e-05
1.60931e-05
1.60934e-05
1.60936e-05
1.60939e-05
1.60941e-05
1.60944e-05
1.60946e-05
1.60948e-05
1.60951e-05
1.60953e-05
1.60955e-05
1.60957e-05
1.60958e-05
1.6096e-05
1.60962e-05
1.60963e-05
1.60965e-05
1.60967e-05
1.60968e-05
1.60969e-05
1.60971e-05
1.60972e-05
1.60973e-05
1.60975e-05
1.60976e-05
1.60977e-05
1.60894e-05
1.60893e-05
1.60892e-05
1.60893e-05
1.60895e-05
1.60897e-05
1.60899e-05
1.60902e-05
1.60905e-05
1.60908e-05
1.60911e-05
1.60914e-05
1.60917e-05
1.6092e-05
1.60923e-05
1.60925e-05
1.60928e-05
1.60931e-05
1.60933e-05
1.60936e-05
1.60939e-05
1.60941e-05
1.60943e-05
1.60946e-05
1.60948e-05
1.6095e-05
1.60952e-05
1.60954e-05
1.60955e-05
1.60957e-05
1.60959e-05
1.6096e-05
1.60962e-05
1.60963e-05
1.60965e-05
1.60966e-05
1.60967e-05
1.60969e-05
1.6097e-05
1.60971e-05
1.60972e-05
1.60886e-05
1.60885e-05
1.60885e-05
1.60886e-05
1.60888e-05
1.6089e-05
1.60893e-05
1.60895e-05
1.60898e-05
1.60901e-05
1.60904e-05
1.60907e-05
1.6091e-05
1.60913e-05
1.60916e-05
1.60919e-05
1.60922e-05
1.60924e-05
1.60927e-05
1.6093e-05
1.60932e-05
1.60935e-05
1.60937e-05
1.60939e-05
1.60942e-05
1.60944e-05
1.60946e-05
1.60947e-05
1.60949e-05
1.60951e-05
1.60953e-05
1.60954e-05
1.60956e-05
1.60957e-05
1.60959e-05
1.6096e-05
1.60961e-05
1.60962e-05
1.60963e-05
1.60965e-05
1.60966e-05
1.60878e-05
1.60877e-05
1.60877e-05
1.60878e-05
1.6088e-05
1.60882e-05
1.60885e-05
1.60887e-05
1.6089e-05
1.60893e-05
1.60896e-05
1.60899e-05
1.60902e-05
1.60905e-05
1.60908e-05
1.60911e-05
1.60914e-05
1.60917e-05
1.6092e-05
1.60922e-05
1.60925e-05
1.60927e-05
1.6093e-05
1.60932e-05
1.60934e-05
1.60936e-05
1.60938e-05
1.6094e-05
1.60942e-05
1.60944e-05
1.60945e-05
1.60947e-05
1.60948e-05
1.6095e-05
1.60951e-05
1.60952e-05
1.60954e-05
1.60955e-05
1.60956e-05
1.60957e-05
1.60958e-05
1.60869e-05
1.60869e-05
1.60869e-05
1.6087e-05
1.60872e-05
1.60874e-05
1.60876e-05
1.60879e-05
1.60881e-05
1.60884e-05
1.60887e-05
1.6089e-05
1.60893e-05
1.60896e-05
1.60899e-05
1.60902e-05
1.60905e-05
1.60908e-05
1.60911e-05
1.60913e-05
1.60916e-05
1.60919e-05
1.60921e-05
1.60923e-05
1.60925e-05
1.60928e-05
1.6093e-05
1.60931e-05
1.60933e-05
1.60935e-05
1.60936e-05
1.60938e-05
1.60939e-05
1.60941e-05
1.60942e-05
1.60943e-05
1.60945e-05
1.60946e-05
1.60947e-05
1.60948e-05
1.60949e-05
1.6086e-05
1.60859e-05
1.6086e-05
1.60861e-05
1.60862e-05
1.60864e-05
1.60866e-05
1.60869e-05
1.60871e-05
1.60874e-05
1.60877e-05
1.6088e-05
1.60883e-05
1.60886e-05
1.60889e-05
1.60892e-05
1.60895e-05
1.60898e-05
1.609e-05
1.60903e-05
1.60906e-05
1.60908e-05
1.60911e-05
1.60913e-05
1.60915e-05
1.60917e-05
1.60919e-05
1.60921e-05
1.60923e-05
1.60925e-05
1.60926e-05
1.60928e-05
1.60929e-05
1.6093e-05
1.60932e-05
1.60933e-05
1.60934e-05
1.60935e-05
1.60936e-05
1.60937e-05
1.60938e-05
1.6085e-05
1.6085e-05
1.6085e-05
1.60851e-05
1.60852e-05
1.60854e-05
1.60856e-05
1.60858e-05
1.6086e-05
1.60863e-05
1.60865e-05
1.60868e-05
1.60871e-05
1.60874e-05
1.60877e-05
1.6088e-05
1.60883e-05
1.60886e-05
1.60889e-05
1.60892e-05
1.60894e-05
1.60897e-05
1.60899e-05
1.60901e-05
1.60904e-05
1.60906e-05
1.60908e-05
1.60909e-05
1.60911e-05
1.60913e-05
1.60914e-05
1.60916e-05
1.60917e-05
1.60918e-05
1.6092e-05
1.60921e-05
1.60922e-05
1.60923e-05
1.60924e-05
1.60925e-05
1.60926e-05
1.6084e-05
1.60839e-05
1.6084e-05
1.6084e-05
1.60841e-05
1.60842e-05
1.60844e-05
1.60846e-05
1.60848e-05
1.6085e-05
1.60853e-05
1.60856e-05
1.60858e-05
1.60861e-05
1.60864e-05
1.60867e-05
1.6087e-05
1.60873e-05
1.60876e-05
1.60878e-05
1.60881e-05
1.60884e-05
1.60886e-05
1.60888e-05
1.6089e-05
1.60892e-05
1.60894e-05
1.60896e-05
1.60898e-05
1.60899e-05
1.60901e-05
1.60902e-05
1.60904e-05
1.60905e-05
1.60906e-05
1.60907e-05
1.60908e-05
1.60909e-05
1.6091e-05
1.60911e-05
1.60911e-05
1.60828e-05
1.60828e-05
1.60828e-05
1.60829e-05
1.60829e-05
1.6083e-05
1.60831e-05
1.60832e-05
1.60834e-05
1.60837e-05
1.60839e-05
1.60842e-05
1.60844e-05
1.60847e-05
1.6085e-05
1.60853e-05
1.60856e-05
1.60858e-05
1.60861e-05
1.60864e-05
1.60866e-05
1.60869e-05
1.60871e-05
1.60873e-05
1.60875e-05
1.60877e-05
1.60879e-05
1.60881e-05
1.60882e-05
1.60884e-05
1.60885e-05
1.60887e-05
1.60888e-05
1.60889e-05
1.6089e-05
1.60891e-05
1.60892e-05
1.60893e-05
1.60894e-05
1.60894e-05
1.60895e-05
1.60817e-05
1.60816e-05
1.60816e-05
1.60816e-05
1.60816e-05
1.60816e-05
1.60817e-05
1.60818e-05
1.6082e-05
1.60822e-05
1.60824e-05
1.60826e-05
1.60829e-05
1.60831e-05
1.60834e-05
1.60837e-05
1.60839e-05
1.60842e-05
1.60845e-05
1.60847e-05
1.60849e-05
1.60852e-05
1.60854e-05
1.60856e-05
1.60858e-05
1.6086e-05
1.60862e-05
1.60863e-05
1.60865e-05
1.60866e-05
1.60868e-05
1.60869e-05
1.6087e-05
1.60871e-05
1.60872e-05
1.60873e-05
1.60874e-05
1.60875e-05
1.60875e-05
1.60876e-05
1.60876e-05
1.60804e-05
1.60804e-05
1.60803e-05
1.60802e-05
1.60802e-05
1.60802e-05
1.60802e-05
1.60803e-05
1.60804e-05
1.60806e-05
1.60807e-05
1.60809e-05
1.60812e-05
1.60814e-05
1.60816e-05
1.60819e-05
1.60821e-05
1.60824e-05
1.60826e-05
1.60828e-05
1.60831e-05
1.60833e-05
1.60835e-05
1.60837e-05
1.60839e-05
1.60841e-05
1.60842e-05
1.60844e-05
1.60845e-05
1.60846e-05
1.60848e-05
1.60849e-05
1.6085e-05
1.60851e-05
1.60851e-05
1.60852e-05
1.60853e-05
1.60853e-05
1.60854e-05
1.60854e-05
1.60855e-05
1.60791e-05
1.6079e-05
1.60789e-05
1.60788e-05
1.60787e-05
1.60786e-05
1.60786e-05
1.60787e-05
1.60787e-05
1.60788e-05
1.6079e-05
1.60791e-05
1.60793e-05
1.60795e-05
1.60797e-05
1.60799e-05
1.60801e-05
1.60803e-05
1.60806e-05
1.60808e-05
1.6081e-05
1.60811e-05
1.60813e-05
1.60815e-05
1.60817e-05
1.60818e-05
1.6082e-05
1.60821e-05
1.60822e-05
1.60823e-05
1.60825e-05
1.60826e-05
1.60826e-05
1.60827e-05
1.60828e-05
1.60829e-05
1.60829e-05
1.6083e-05
1.6083e-05
1.60831e-05
1.60831e-05
1.60776e-05
1.60775e-05
1.60774e-05
1.60772e-05
1.60771e-05
1.6077e-05
1.6077e-05
1.6077e-05
1.6077e-05
1.6077e-05
1.60771e-05
1.60772e-05
1.60773e-05
1.60775e-05
1.60776e-05
1.60778e-05
1.60779e-05
1.60781e-05
1.60783e-05
1.60784e-05
1.60786e-05
1.60787e-05
1.60789e-05
1.6079e-05
1.60792e-05
1.60793e-05
1.60794e-05
1.60795e-05
1.60796e-05
1.60797e-05
1.60798e-05
1.60799e-05
1.60799e-05
1.608e-05
1.608e-05
1.60801e-05
1.60801e-05
1.60801e-05
1.60801e-05
1.60801e-05
1.60801e-05
1.60761e-05
1.6076e-05
1.60758e-05
1.60756e-05
1.60754e-05
1.60753e-05
1.60752e-05
1.60752e-05
1.60752e-05
1.60751e-05
1.60751e-05
1.60752e-05
1.60752e-05
1.60753e-05
1.60753e-05
1.60754e-05
1.60755e-05
1.60756e-05
1.60757e-05
1.60758e-05
1.60759e-05
1.6076e-05
1.60761e-05
1.60762e-05
1.60762e-05
1.60763e-05
1.60764e-05
1.60765e-05
1.60766e-05
1.60766e-05
1.60767e-05
1.60767e-05
1.60768e-05
1.60769e-05
1.60769e-05
1.6077e-05
1.6077e-05
1.6077e-05
1.60771e-05
1.60771e-05
1.60771e-05
1.60744e-05
1.60743e-05
1.60741e-05
1.60739e-05
1.60738e-05
1.60736e-05
1.60735e-05
1.60734e-05
1.60733e-05
1.60732e-05
1.60731e-05
1.60731e-05
1.6073e-05
1.6073e-05
1.60729e-05
1.60729e-05
1.60729e-05
1.60729e-05
1.60729e-05
1.60729e-05
1.60729e-05
1.60729e-05
1.6073e-05
1.6073e-05
1.60731e-05
1.60731e-05
1.60732e-05
1.60732e-05
1.60733e-05
1.60733e-05
1.60733e-05
1.60734e-05
1.60734e-05
1.60734e-05
1.60734e-05
1.60733e-05
1.60733e-05
1.60733e-05
1.60732e-05
1.60732e-05
1.60732e-05
1.60726e-05
1.60725e-05
1.60723e-05
1.60722e-05
1.6072e-05
1.60719e-05
1.60718e-05
1.60716e-05
1.60715e-05
1.60714e-05
1.60712e-05
1.60711e-05
1.60709e-05
1.60707e-05
1.60706e-05
1.60705e-05
1.60703e-05
1.60702e-05
1.60702e-05
1.60701e-05
1.607e-05
1.607e-05
1.60699e-05
1.60699e-05
1.60699e-05
1.60699e-05
1.607e-05
1.607e-05
1.607e-05
1.607e-05
1.607e-05
1.60701e-05
1.60701e-05
1.60701e-05
1.60701e-05
1.60701e-05
1.607e-05
1.60701e-05
1.60701e-05
1.60701e-05
1.60701e-05
1.60707e-05
1.60706e-05
1.60705e-05
1.60704e-05
1.60703e-05
1.60702e-05
1.60701e-05
1.607e-05
1.60698e-05
1.60697e-05
1.60695e-05
1.60692e-05
1.6069e-05
1.60688e-05
1.60687e-05
1.60687e-05
1.60687e-05
1.60688e-05
1.60689e-05
1.60691e-05
1.60692e-05
1.60693e-05
1.60694e-05
1.60695e-05
1.60696e-05
1.60697e-05
1.60698e-05
1.60699e-05
1.60699e-05
1.607e-05
1.60701e-05
1.60701e-05
1.60702e-05
1.60702e-05
1.60702e-05
1.60703e-05
1.60703e-05
1.60703e-05
1.60703e-05
1.60703e-05
1.60704e-05
1.60687e-05
1.60687e-05
1.60686e-05
1.60686e-05
1.60686e-05
1.60685e-05
1.60685e-05
1.60684e-05
1.60684e-05
1.60683e-05
1.60682e-05
1.6068e-05
1.60679e-05
1.6068e-05
1.60682e-05
1.60685e-05
1.60689e-05
1.60693e-05
1.60698e-05
1.60704e-05
1.6071e-05
1.60717e-05
1.60724e-05
1.60731e-05
1.60739e-05
1.60747e-05
1.60754e-05
1.60762e-05
1.60769e-05
1.60775e-05
1.60781e-05
1.60787e-05
1.60792e-05
1.60797e-05
1.60801e-05
1.60806e-05
1.60809e-05
1.60813e-05
1.60816e-05
1.60819e-05
1.60822e-05
0.00451434
0.00621027
0.00704201
0.00750581
0.00776401
0.00786368
0.00782118
0.00764943
0.0073433
0.00691663
0.00637366
0.00571754
0.00495208
0.00408296
0.00314437
0.00219533
0.00126978
0.000559121
8.23386e-05
0.000156956
1.73832e-05
1.00369e-05
1.0832e-05
1.46806e-05
1.92438e-05
1.86854e-05
1.67107e-05
1.56885e-05
1.56615e-05
1.59529e-05
1.61524e-05
1.61852e-05
1.61436e-05
1.61065e-05
1.6096e-05
1.61034e-05
1.61154e-05
1.61248e-05
1.61302e-05
1.61327e-05
1.61338e-05
1.61344e-05
1.61344e-05
1.61337e-05
1.61325e-05
1.61309e-05
1.61291e-05
1.61276e-05
1.61264e-05
1.61255e-05
1.61249e-05
1.61246e-05
1.61245e-05
1.61246e-05
1.61248e-05
1.61251e-05
1.61255e-05
1.61259e-05
1.61264e-05
1.6127e-05
1.61277e-05
1.61284e-05
1.61292e-05
1.613e-05
1.61309e-05
1.61318e-05
1.61327e-05
1.61336e-05
1.61346e-05
1.61356e-05
1.61366e-05
1.61376e-05
1.61384e-05
1.61401e-05
0.00648017
0.00839588
0.00937698
0.00987913
0.010153
0.0102748
0.0102667
0.0101432
0.0099072
0.00955925
0.00909821
0.00852168
0.00782694
0.00701145
0.00607408
0.00502699
0.0038777
0.00270945
0.00159915
0.000734921
0.000168516
0.000207424
3.60654e-05
1.11012e-05
1.00057e-05
1.19802e-05
1.75995e-05
1.89779e-05
1.75045e-05
1.61109e-05
1.56702e-05
1.57656e-05
1.59914e-05
1.61347e-05
1.61658e-05
1.61408e-05
1.61141e-05
1.61069e-05
1.61151e-05
1.61272e-05
1.61354e-05
1.61383e-05
1.61376e-05
1.61358e-05
1.61339e-05
1.61323e-05
1.61308e-05
1.61294e-05
1.6128e-05
1.61269e-05
1.61261e-05
1.61256e-05
1.61254e-05
1.61254e-05
1.61255e-05
1.61258e-05
1.61261e-05
1.61265e-05
1.6127e-05
1.61276e-05
1.61282e-05
1.61289e-05
1.61296e-05
1.61305e-05
1.61313e-05
1.61322e-05
1.61332e-05
1.61341e-05
1.61351e-05
1.61361e-05
1.61371e-05
1.61382e-05
1.6139e-05
1.61407e-05
0.00785814
0.00980929
0.0109344
0.0115958
0.0119974
0.0122118
0.0122891
0.0122616
0.0121389
0.0119167
0.0115883
0.0111492
0.0105954
0.00992244
0.00912253
0.00819006
0.00711697
0.00591359
0.0045999
0.00324422
0.00195881
0.000950032
0.000275188
5.12516e-05
1.4222e-05
1.00855e-05
1e-05
1.09535e-05
1.59554e-05
1.90384e-05
1.8565e-05
1.69462e-05
1.59736e-05
1.57289e-05
1.58671e-05
1.60713e-05
1.61801e-05
1.6188e-05
1.61541e-05
1.61262e-05
1.61189e-05
1.61252e-05
1.61339e-05
1.61387e-05
1.61389e-05
1.61365e-05
1.61335e-05
1.6131e-05
1.61293e-05
1.61282e-05
1.61274e-05
1.61269e-05
1.61265e-05
1.61264e-05
1.61264e-05
1.61265e-05
1.61268e-05
1.61272e-05
1.61276e-05
1.61282e-05
1.61288e-05
1.61294e-05
1.61302e-05
1.6131e-05
1.61318e-05
1.61327e-05
1.61337e-05
1.61347e-05
1.61357e-05
1.61367e-05
1.61377e-05
1.61388e-05
1.61396e-05
1.61414e-05
0.0100816
0.011343
0.0119753
0.0126349
0.0131425
0.0134467
0.0136318
0.0137425
0.0137796
0.0137272
0.0135756
0.0133231
0.0129666
0.0124987
0.0119089
0.0111866
0.0103216
0.00930567
0.00813274
0.00680201
0.00534313
0.00383442
0.00240526
0.0012603
0.000490962
1.02555e-05
0.000139679
1.00017e-05
1.00603e-05
1.00706e-05
1.28308e-05
1.68329e-05
1.84118e-05
1.76532e-05
1.64014e-05
1.57638e-05
1.56969e-05
1.58967e-05
1.60981e-05
1.61936e-05
1.61971e-05
1.61644e-05
1.61367e-05
1.61263e-05
1.61282e-05
1.61335e-05
1.61365e-05
1.61361e-05
1.61336e-05
1.61308e-05
1.61288e-05
1.61277e-05
1.61273e-05
1.61273e-05
1.61274e-05
1.61275e-05
1.61277e-05
1.6128e-05
1.61284e-05
1.61288e-05
1.61294e-05
1.613e-05
1.61308e-05
1.61316e-05
1.61324e-05
1.61333e-05
1.61343e-05
1.61352e-05
1.61363e-05
1.61373e-05
1.61383e-05
1.61395e-05
1.61403e-05
1.61421e-05
0.0115209
0.0127225
0.0134404
0.0138484
0.0140789
0.0141637
0.0143259
0.0145268
0.0146968
0.014791
0.0148098
0.0147638
0.0146446
0.0144327
0.0141092
0.0136618
0.0130804
0.0123527
0.0114664
0.0104069
0.00916565
0.00774249
0.00617494
0.0045307
0.00297842
0.00162136
0.000698755
9.50106e-05
1.00296e-05
1.09976e-05
1.13417e-05
1.06713e-05
1.06355e-05
1.43411e-05
1.80077e-05
1.87332e-05
1.7501e-05
1.6318e-05
1.57739e-05
1.57473e-05
1.59328e-05
1.61121e-05
1.61977e-05
1.62011e-05
1.617e-05
1.61408e-05
1.61271e-05
1.61261e-05
1.613e-05
1.6133e-05
1.61334e-05
1.61318e-05
1.61298e-05
1.61285e-05
1.61279e-05
1.6128e-05
1.61284e-05
1.61289e-05
1.61293e-05
1.61297e-05
1.61302e-05
1.61307e-05
1.61314e-05
1.61322e-05
1.6133e-05
1.61339e-05
1.61349e-05
1.61359e-05
1.61369e-05
1.6138e-05
1.6139e-05
1.61402e-05
1.6141e-05
1.61429e-05
0.0122278
0.0131209
0.0138798
0.0144618
0.0148651
0.0150857
0.0152024
0.0152711
0.015307
0.0152865
0.015303
0.015383
0.0154618
0.0154831
0.0154194
0.015267
0.0150146
0.0146394
0.0141196
0.0134366
0.0125741
0.0115147
0.0102498
0.00877762
0.00713776
0.00540168
0.00369409
0.00217422
0.00106056
0.000300021
6.70554e-05
2.90927e-05
1.01321e-05
1.00666e-05
1.00058e-05
1.15077e-05
1.56317e-05
1.84952e-05
1.84877e-05
1.73148e-05
1.62808e-05
1.58197e-05
1.57929e-05
1.59539e-05
1.61154e-05
1.6196e-05
1.62013e-05
1.61716e-05
1.61415e-05
1.61255e-05
1.61228e-05
1.61264e-05
1.61305e-05
1.61323e-05
1.6132e-05
1.61308e-05
1.61297e-05
1.61294e-05
1.61296e-05
1.61302e-05
1.61309e-05
1.61316e-05
1.61323e-05
1.6133e-05
1.61338e-05
1.61346e-05
1.61355e-05
1.61365e-05
1.61376e-05
1.61387e-05
1.61397e-05
1.61409e-05
1.61418e-05
1.61438e-05
0.011681
0.012093
0.0125841
0.01316
0.0137765
0.0143653
0.0148687
0.0152659
0.015557
0.0157379
0.0158343
0.0158832
0.0158988
0.0158641
0.0158266
0.0158508
0.0158764
0.0158357
0.0156878
0.0154152
0.0149985
0.0144116
0.0136289
0.0126267
0.0113904
0.00992526
0.00825287
0.00644516
0.0046176
0.00292433
0.00160085
0.000700917
9.42782e-05
1.01585e-05
1.28872e-05
1.38186e-05
1.1394e-05
1.00679e-05
1.18447e-05
1.54827e-05
1.82289e-05
1.82702e-05
1.72294e-05
1.63025e-05
1.58625e-05
1.58168e-05
1.59555e-05
1.61069e-05
1.61895e-05
1.62004e-05
1.61739e-05
1.61431e-05
1.61247e-05
1.61201e-05
1.61236e-05
1.6129e-05
1.61325e-05
1.61336e-05
1.61331e-05
1.61322e-05
1.61318e-05
1.61319e-05
1.61326e-05
1.61336e-05
1.61346e-05
1.61355e-05
1.61364e-05
1.61374e-05
1.61384e-05
1.61394e-05
1.61405e-05
1.61417e-05