/*--------------------------------*- C++ -*----------------------------------*\
| =========                 |                                                 |
| \\      /  F ield         | OpenFOAM: The Open Source CFD Toolbox           |
|  \\    /   O peration     | Version:  2312                                  |
|   \\  /    A nd           | Website:  www.openfoam.com                      |
|    \\/     M anipulation  |                                                 |
\*---------------------------------------------------------------------------*/
FoamFile
{
    version     2.0;
    format      ascii;
    arch        "LSB;label=32;scalar=64";
    class       volScalarField;
    location    "250";
    object      turbulenceProperties:I;
}
// * * * * * * * * * * * * * * * * * * * * * * * * * * * * * * * * * * * * * //

dimensions      [0 0 0 0 0 0 0];

internalField   nonuniform List<scalar> 
11040
(
0.0269186
0.0342913
0.050101
0.0845691
0.178442
0.639673
1
0.669147
0.594855
0.642445
0.669886
0.5642
0.462483
0.399238
0.363563
0.342726
0.329687
0.320902
0.314755
0.3104
0.30785
0.307038
0.30675
0.306409
0.306302
0.306744
0.307829
0.309545
0.311928
0.315083
0.319181
0.324469
0.331252
0.339687
0.347068
0.335373
0.340609
0.372875
0.442542
0.536895
0.476784
0.0111595
0.00999242
0.0114422
0.0181361
0.0319439
0.0634862
0.111225
0.170518
0.243991
0.316223
0.339131
0.323161
0.293165
0.262778
0.23717
0.216861
0.200829
0.188122
0.178167
0.170456
0.165009
0.161923
0.160028
0.158387
0.157224
0.157014
0.157884
0.159796
0.162784
0.166996
0.172676
0.180187
0.190002
0.202768
0.219141
0.238828
0.266422
0.304591
0.371611
0.432416
1
0.00914518
0.00650946
0.00540933
0.00440216
0.00316536
0.00995811
0.0206227
0.0346057
0.0512897
0.0694655
0.0888229
0.108919
0.128533
0.146028
0.159835
0.168819
0.172691
0.172154
0.168875
0.164727
0.161102
0.158824
0.157834
0.157469
0.157483
0.158004
0.159112
0.160849
0.163307
0.166651
0.1711
0.176951
0.184589
0.194533
0.207546
0.22452
0.24727
0.276521
0.321477
0.354857
0.549343
0.00822788
0.00656074
0.00541319
0.00469155
0.00412663
0.00315549
0.00228775
0.00228838
0.0051587
0.00858671
0.0122496
0.0162958
0.0215408
0.0289644
0.0389471
0.0512986
0.0653581
0.080156
0.0946067
0.107689
0.118745
0.127249
0.133127
0.137052
0.139814
0.142124
0.144477
0.147157
0.150365
0.154273
0.159045
0.164874
0.172009
0.180796
0.191748
0.205423
0.222911
0.244562
0.275719
0.300085
0.396577
0.00714111
0.0060215
0.00512871
0.00440443
0.00389804
0.00351
0.002957
0.00216518
0.00135883
0.000716933
0.00024593
0.0026252
0.001152
0.00110617
0.000435114
0.00171062
0.00516194
0.0103839
0.017879
0.0277811
0.0400738
0.0535162
0.066555
0.0786278
0.0894799
0.0990771
0.107544
0.115073
0.121933
0.128432
0.134899
0.141666
0.149064
0.157463
0.167283
0.178908
0.192997
0.209737
0.232218
0.252068
0.306804
0.00604983
0.00537499
0.00475218
0.00418353
0.00372279
0.00340309
0.0031823
0.00295857
0.00268724
0.002378
0.0020634
0.00177745
0.00161735
0.00136866
0.00116059
0.000401191
0.00186253
0.000592236
0.000483169
0.000989741
0.00251955
0.00469483
0.0101452
0.0170814
0.025153
0.0341262
0.0437666
0.0538592
0.0642377
0.0747852
0.0854381
0.0961914
0.107093
0.118284
0.129967
0.14234
0.155783
0.170488
0.188208
0.205093
0.23972
0.00510777
0.0047021
0.00434115
0.00397477
0.0036214
0.00330703
0.00305141
0.00285187
0.00268411
0.00252799
0.00237338
0.00221494
0.00204699
0.00192378
0.00182928
0.00172852
0.00161748
0.00148166
0.00126841
0.00061432
0.00137522
0.00277146
0.00198628
0.00172608
0.0016922
0.00289215
0.00415728
0.00752074
0.0125361
0.0189047
0.0265963
0.0356121
0.0459143
0.0575041
0.0703604
0.0843926
0.0995361
0.115744
0.133592
0.151011
0.178262
0.0042992
0.00405192
0.00384843
0.00362232
0.00337669
0.00313886
0.00292506
0.00273743
0.00256855
0.00241123
0.00225964
0.0021094
0.00196261
0.00182995
0.00171894
0.00163802
0.00157483
0.0015134
0.00147519
0.00139922
0.00128702
0.00112222
0.000988719
0.000336523
0.000601628
0.00118816
0.000174653
0.0031279
0.00394217
0.000801489
0.00239562
0.00388244
0.00670721
0.0114387
0.0181307
0.0268325
0.0375913
0.0504928
0.0657347
0.0818603
0.105413
0.0036197
0.00346539
0.00335454
0.00323438
0.0030896
0.00293017
0.00276965
0.00261563
0.00246897
0.00232713
0.00218797
0.00205033
0.00191597
0.00179106
0.00168196
0.00159227
0.00152041
0.00146418
0.00141814
0.00138646
0.00136324
0.00132023
0.00126283
0.00121358
0.00113432
0.00104277
0.000907019
0.000722368
0.000170238
0.000324425
0.000711737
0.00142118
0.00238072
0.00166486
0.00168173
0.00247144
0.00505884
0.00944521
0.0162432
0.0245606
0.0393135
0.00304825
0.00294993
0.00288954
0.00283101
0.00275571
0.00266189
0.0025557
0.00244442
0.00233165
0.00221834
0.00210446
0.00199008
0.00187667
0.00176829
0.00166964
0.00158405
0.00151221
0.00145287
0.00140423
0.00136442
0.00133231
0.00130708
0.00128408
0.00126718
0.00125001
0.00123006
0.00120424
0.00118251
0.00113229
0.00105136
0.000932029
0.000788398
0.000511342
0.000131761
0.000442812
0.000598982
0.00129593
0.00228082
0.00196121
0.00238043
0.00634581
0.00256878
0.00250508
0.00247209
0.00244711
0.00241529
0.00237035
0.00231168
0.00224189
0.00216407
0.00208039
0.00199289
0.00190256
0.00181083
0.00172069
0.00163568
0.00155885
0.00149171
0.00143424
0.00138557
0.00134437
0.00130954
0.00128035
0.00125536
0.00123401
0.0012168
0.00120415
0.00119613
0.00119118
0.00119259
0.00118995
0.00118119
0.00116009
0.00111838
0.00102681
0.000930674
0.000755936
0.000432323
0.000168483
0.000440171
0.000461951
0.00134649
0.00216597
0.00212403
0.00210601
0.00209781
0.00208926
0.00207415
0.00204908
0.00201335
0.00196773
0.00191374
0.00185318
0.00178756
0.00171841
0.00164806
0.00157918
0.00151429
0.00145515
0.00140251
0.00135639
0.00131627
0.00128173
0.00125245
0.00122744
0.00120558
0.00118685
0.0011715
0.00115959
0.00115072
0.00114483
0.00114156
0.00114049
0.00114122
0.00114435
0.00114787
0.00114608
0.00113
0.0010811
0.000973711
0.000782623
0.000618461
0.000146925
0.00182727
0.00179929
0.00178963
0.00178947
0.00179227
0.00179336
0.00178913
0.00177739
0.00175722
0.0017286
0.00169249
0.00164994
0.00160228
0.00155139
0.00149927
0.00144791
0.00139898
0.00135359
0.0013123
0.00127516
0.00124233
0.00121415
0.00119008
0.00116909
0.00115088
0.00113537
0.00112246
0.00111183
0.0011031
0.00109594
0.00109003
0.00108521
0.00108142
0.00107913
0.0010785
0.00107895
0.00108113
0.00108399
0.00107459
0.00106125
0.000957756
0.00154204
0.00152315
0.00151823
0.00152161
0.00152915
0.00153768
0.00154432
0.00154679
0.00154353
0.00153366
0.00151715
0.00149434
0.00146591
0.00143311
0.00139739
0.00136023
0.00132302
0.00128686
0.00125255
0.00122048
0.00119115
0.00116535
0.00114297
0.00112323
0.00110584
0.00109067
0.00107754
0.00106622
0.0010564
0.00104777
0.00104005
0.00103295
0.00102623
0.00101967
0.0010132
0.00100682
0.00100072
0.000995871
0.000992308
0.000989517
0.000989942
0.00130141
0.00128862
0.00128645
0.00129113
0.0013001
0.0013113
0.00132264
0.00133228
0.00133873
0.00134083
0.00133799
0.00132998
0.00131688
0.00129924
0.00127793
0.00125397
0.00122838
0.00120209
0.00117588
0.00115025
0.00112586
0.00110372
0.00108399
0.00106615
0.00105007
0.00103564
0.00102271
0.0010111
0.0010006
0.000990998
0.000982067
0.000973591
0.000965365
0.000957182
0.000948857
0.000940238
0.000931176
0.000921554
0.000911635
0.000899994
0.000892957
0.00109834
0.00108973
0.00108914
0.00109396
0.00110273
0.00111411
0.00112664
0.00113895
0.00114987
0.00115833
0.0011636
0.00116519
0.00116284
0.00115659
0.00114675
0.00113389
0.00111866
0.00110171
0.00108366
0.00106499
0.00104633
0.00102867
0.00101238
0.000997154
0.000983011
0.00096991
0.000957761
0.000946449
0.000935841
0.000925795
0.000916163
0.00090679
0.000897539
0.00088826
0.000878816
0.000869101
0.000858997
0.000848379
0.00083716
0.000824566
0.000813583
0.00092797
0.000922169
0.000922416
0.000926859
0.000934739
0.00094521
0.000957215
0.000969765
0.000981996
0.000993079
0.00100234
0.00100927
0.00101347
0.00101473
0.00101303
0.00100849
0.00100144
0.000992302
0.000981466
0.000969287
0.00095622
0.000943144
0.000930495
0.000918155
0.000906251
0.000894818
0.000883832
0.00087324
0.000862982
0.000852985
0.000843163
0.000833425
0.000823691
0.000813866
0.000803862
0.000793626
0.000783099
0.000772216
0.000760903
0.000748826
0.000737728
0.000789519
0.000785509
0.000786175
0.000790137
0.00079705
0.000806349
0.000817236
0.000828974
0.000840925
0.000852471
0.00086307
0.000872283
0.000879733
0.000885139
0.000888321
0.000889227
0.000887898
0.000884485
0.000879228
0.000872331
0.000864065
0.000855094
0.000845836
0.000836303
0.000826682
0.000817067
0.000807488
0.000797952
0.000788451
0.000778963
0.000769457
0.000759888
0.000750229
0.000740428
0.000730438
0.00072025
0.000709857
0.00069922
0.000688317
0.000677006
0.000666349
0.000679903
0.00067704
0.0006779
0.000681398
0.000687434
0.000695615
0.000705305
0.000715928
0.000726991
0.000738022
0.000748588
0.00075833
0.000766928
0.000774101
0.000779635
0.00078339
0.000785308
0.000785395
0.000783724
0.000780418
0.000775631
0.000769815
0.000763311
0.000756193
0.000748661
0.000740832
0.00073277
0.000724516
0.000716102
0.000707538
0.000698829
0.000689967
0.000680958
0.00067178
0.000662415
0.000652878
0.000643199
0.000633344
0.000623308
0.000613073
0.000603234
0.000592595
0.00059047
0.000591344
0.000594363
0.000599578
0.0006067
0.000615204
0.000624615
0.000634543
0.000644613
0.000654481
0.000663858
0.000672483
0.000680113
0.000686546
0.000691625
0.000695246
0.000697347
0.000697916
0.000696968
0.000694564
0.000691018
0.000686593
0.000681382
0.000675572
0.000669282
0.000662593
0.000655568
0.00064826
0.000640708
0.000632939
0.000624968
0.000616825
0.000608511
0.000600024
0.000591394
0.000582675
0.000573832
0.000564869
0.000555809
0.000547068
0.00052127
0.000519613
0.00052041
0.000522991
0.00052749
0.000533687
0.000541131
0.000549425
0.000558247
0.00056729
0.000576273
0.00058496
0.000593136
0.000600595
0.000607158
0.000612673
0.000617025
0.000620129
0.000621932
0.000622404
0.000621542
0.000619534
0.000616584
0.000612794
0.000608331
0.000603304
0.000597793
0.000591874
0.00058561
0.000579051
0.000572238
0.0005652
0.000557982
0.000550595
0.00054305
0.000535384
0.000527666
0.000519856
0.000511973
0.000504013
0.000496467
0.000461916
0.000460572
0.000461268
0.000463473
0.000467366
0.000472768
0.000479286
0.00048658
0.000494376
0.000502418
0.00051047
0.000518336
0.000525837
0.000532801
0.000539073
0.000544521
0.000549032
0.000552517
0.000554911
0.000556163
0.000556239
0.00055525
0.000553343
0.000550607
0.000547186
0.000543179
0.000538666
0.000533719
0.000528405
0.000522777
0.000516885
0.000510761
0.000504458
0.000497994
0.000491384
0.000484668
0.000477921
0.0004711
0.000464236
0.000457262
0.000450888
0.000411758
0.000410629
0.00041122
0.000413108
0.00041649
0.000421214
0.000426934
0.000433354
0.000440237
0.000447365
0.000454535
0.000461583
0.000468356
0.000474709
0.00048051
0.000485644
0.000490009
0.00049352
0.000496111
0.000497722
0.00049831
0.000497941
0.000496724
0.000494736
0.000492094
0.000488883
0.000485175
0.000481041
0.000476543
0.000471739
0.000466678
0.000461393
0.000455937
0.000450332
0.000444596
0.000438766
0.000432917
0.000427005
0.000421073
0.000414978
0.000409696
0.000368842
0.00036787
0.000368362
0.000369988
0.000372941
0.00037709
0.000382126
0.000387787
0.000393867
0.000400176
0.000406539
0.000412812
0.000418867
0.000424579
0.000429836
0.000434537
0.000438595
0.000441933
0.000444488
0.000446204
0.000447034
0.00044702
0.000446249
0.000444783
0.000442718
0.000440125
0.000437068
0.000433612
0.000429817
0.000425731
0.000421403
0.000416872
0.000412181
0.000407353
0.00040241
0.000397382
0.000392343
0.000387247
0.000382148
0.000376834
0.000372527
0.000331737
0.000330885
0.000331292
0.000332701
0.000335296
0.000338956
0.000343406
0.000348413
0.000353793
0.00035938
0.00036502
0.000370589
0.000375975
0.00038107
0.00038578
0.000390016
0.000393705
0.000396777
0.000399178
0.000400854
0.000401764
0.000401937
0.000401442
0.000400332
0.000398688
0.000396569
0.000394031
0.000391129
0.000387919
0.000384442
0.000380745
0.000376862
0.000372836
0.000368688
0.000364436
0.000360111
0.000355777
0.000351394
0.000347018
0.000342388
0.000338918
0.000299376
0.000298619
0.000298956
0.000300189
0.000302484
0.00030573
0.000309679
0.000314122
0.000318894
0.000323848
0.00032885
0.000333788
0.000338565
0.000343089
0.000347277
0.000351054
0.000354357
0.000357126
0.000359313
0.000360872
0.000361766
0.000362018
0.00036169
0.000360826
0.000359492
0.000357738
0.000355612
0.000353162
0.000350437
0.000347477
0.000344319
0.000340994
0.000337548
0.000333991
0.000330343
0.000326631
0.000322913
0.000319149
0.0003154
0.000311372
0.000308602
0.000270939
0.000270262
0.000270545
0.000271636
0.000273682
0.000276578
0.000280098
0.000284055
0.000288301
0.000292704
0.000297144
0.000301523
0.000305757
0.000309765
0.000313474
0.000316823
0.000319754
0.000322218
0.000324175
0.000325583
0.000326412
0.000326685
0.000326455
0.000325761
0.000324658
0.000323187
0.00032139
0.00031931
0.000316987
0.000314461
0.000311757
0.000308909
0.000305954
0.000302902
0.000299771
0.000296583
0.00029339
0.000290155
0.000286941
0.000283438
0.000281234
0.000245789
0.000245183
0.000245426
0.000246406
0.000248245
0.000250844
0.000253999
0.000257538
0.000261328
0.000265251
0.000269201
0.00027309
0.000276843
0.00028039
0.000283669
0.000286626
0.000289213
0.000291388
0.000293117
0.000294365
0.000295108
0.000295367
0.000295193
0.000294617
0.000293687
0.000292439
0.000290908
0.000289131
0.000287145
0.000284981
0.000282663
0.00028022
0.000277682
0.000275062
0.000272374
0.000269637
0.000266893
0.000264114
0.000261356
0.000258315
0.000256563
0.000223421
0.00022288
0.000223098
0.000223992
0.000225661
0.00022801
0.000230853
0.000234033
0.000237429
0.000240936
0.000244458
0.000247917
0.000251247
0.000254388
0.000257285
0.000259892
0.000262169
0.000264079
0.000265596
0.00026669
0.00026734
0.000267571
0.000267428
0.000266941
0.000266147
0.000265078
0.000263765
0.000262241
0.000260535
0.000258675
0.000256685
0.000254583
0.000252397
0.000250147
0.000247835
0.00024548
0.000243118
0.000240727
0.000238356
0.000235717
0.000234319
0.000203429
0.00020295
0.000203154
0.000203985
0.000205516
0.000207656
0.000210232
0.000213104
0.00021616
0.000219306
0.000222456
0.00022554
0.0002285
0.000231284
0.000233845
0.000236143
0.000238144
0.000239818
0.000241143
0.000242094
0.000242657
0.000242853
0.00024273
0.000242309
0.000241623
0.000240701
0.00023957
0.000238256
0.000236787
0.000235185
0.000233472
0.000231662
0.00022978
0.000227843
0.000225853
0.000223826
0.000221792
0.000219733
0.000217693
0.000215407
0.000214285
0.000185482
0.000185063
0.000185267
0.000186053
0.000187474
0.000189438
0.000191788
0.000194396
0.000197159
0.000199991
0.000202817
0.000205575
0.000208213
0.000210685
0.000212951
0.000214978
0.000216738
0.000218204
0.00021936
0.000220186
0.000220669
0.000220832
0.000220721
0.000220353
0.000219757
0.000218958
0.000217979
0.000216844
0.000215575
0.000214193
0.000212715
0.000211154
0.000209532
0.00020786
0.000206145
0.000204398
0.000202644
0.000200868
0.000199109
0.000197131
0.000196219
0.000169309
0.000168949
0.000169163
0.000169922
0.000171256
0.000173074
0.000175233
0.000177613
0.000180123
0.000182684
0.000185229
0.000187702
0.000190059
0.00019226
0.00019427
0.000196062
0.00019761
0.000198897
0.000199905
0.000200622
0.000201037
0.000201172
0.000201071
0.000200749
0.000200231
0.000199538
0.000198691
0.00019771
0.000196615
0.000195422
0.000194147
0.000192804
0.000191405
0.000189961
0.000188486
0.000186981
0.000185468
0.000183938
0.000182422
0.000180715
0.00017997
0.000154685
0.000154383
0.000154617
0.000155363
0.00015663
0.000158328
0.000160324
0.00016251
0.000164801
0.000167127
0.000169427
0.000171654
0.000173767
0.000175732
0.00017752
0.000179107
0.000180474
0.000181605
0.000182487
0.000183111
0.000183468
0.000183581
0.00018349
0.000183208
0.000182756
0.000182154
0.000181419
0.00018057
0.000179622
0.000178591
0.00017749
0.00017633
0.000175122
0.000173878
0.000172604
0.000171306
0.000169999
0.000168678
0.00016737
0.000165898
0.000165273
0.00014142
0.000141177
0.00014144
0.000142186
0.000143402
0.000145
0.000146859
0.000148877
0.000150979
0.000153101
0.000155189
0.000157201
0.000159102
0.000160863
0.000162459
0.00016387
0.000165082
0.00016608
0.000166857
0.000167404
0.000167716
0.000167813
0.000167736
0.000167494
0.000167106
0.000166589
0.000165958
0.000165228
0.000164415
0.00016353
0.000162585
0.00016159
0.000160554
0.000159486
0.000158392
0.000157277
0.000156155
0.00015502
0.000153896
0.000152632
0.000152118
0.000129355
0.000129171
0.00012947
0.000130227
0.000131407
0.000132923
0.000134664
0.000136538
0.000138475
0.000140419
0.000142323
0.000144149
0.000145867
0.000147451
0.000148882
0.000150143
0.000151221
0.000152108
0.000152795
0.000153279
0.000153553
0.000153638
0.000153573
0.000153364
0.000153027
0.000152578
0.000152032
0.000151401
0.000150697
0.000149933
0.000149116
0.000148257
0.000147363
0.000146442
0.000145498
0.000144538
0.000143571
0.000142593
0.000141623
0.00014054
0.000140085
0.000118355
0.000118231
0.000118573
0.000119348
0.000120502
0.000121951
0.00012359
0.000125338
0.000127131
0.00012892
0.000130664
0.000132328
0.000133887
0.00013532
0.00013661
0.000137743
0.00013871
0.000139504
0.000140121
0.000140557
0.000140809
0.000140897
0.000140856
0.000140692
0.000140418
0.000140048
0.000139594
0.000139067
0.000138478
0.000137835
0.000137148
0.000136423
0.000135668
0.000134888
0.000134088
0.000133274
0.000132451
0.000131618
0.000130793
0.00012987
0.000129514
0.000108306
0.000108242
0.000108633
0.000109431
0.000110566
0.000111955
0.000113506
0.000115143
0.00011681
0.000118463
0.000120067
0.000121591
0.000123014
0.000124317
0.000125487
0.000126513
0.000127386
0.000128102
0.000128657
0.00012905
0.000129277
0.000129355
0.00012932
0.000129175
0.000128932
0.000128606
0.000128206
0.000127745
0.00012723
0.000126672
0.000126076
0.000125449
0.000124798
0.000124126
0.000123439
0.00012274
0.000122032
0.00012132
0.00012061
0.000119834
0.000119474
9.91091e-05
9.91069e-05
9.95506e-05
0.000100373
0.000101491
0.000102824
0.000104293
0.00010583
0.000107386
0.000108922
0.000110404
0.000111808
0.000113114
0.000114307
0.000115376
0.000116314
0.000117114
0.000117774
0.000118293
0.000118672
0.000118911
0.000119023
0.000119042
0.000118969
0.000118812
0.000118582
0.000118288
0.000117938
0.00011754
0.0001171
0.000116623
0.000116116
0.000115585
0.000115033
0.000114465
0.000113883
0.000113293
0.000112695
0.000112104
0.000111436
0.000111223
9.06813e-05
9.07404e-05
9.12389e-05
9.20864e-05
9.3185e-05
9.44635e-05
9.58513e-05
9.72923e-05
9.8745e-05
0.000100175
0.000101554
0.000102857
0.000104066
0.000105168
0.000106152
0.000107013
0.000107746
0.000108347
0.000108815
0.000109148
0.000109345
0.00010942
0.000109404
0.000109302
0.000109125
0.000108885
0.000108594
0.000108259
0.000107888
0.000107488
0.000107064
0.00010662
0.000106161
0.00010569
0.00010521
0.000104721
0.000104227
0.000103731
0.000103232
0.000102713
0.000102378
8.29518e-05
8.30682e-05
8.36164e-05
8.4481e-05
8.55573e-05
8.67822e-05
8.80946e-05
8.94449e-05
9.07974e-05
9.21249e-05
9.34044e-05
9.46169e-05
9.57461e-05
9.67784e-05
9.77042e-05
9.85188e-05
9.92223e-05
9.98174e-05
0.000100309
0.000100699
0.000100991
0.000101192
0.000101327
0.000101391
0.000101387
0.000101321
0.000101199
0.000101025
0.000100806
0.000100544
0.000100247
9.9919e-05
9.9565e-05
9.91904e-05
9.87978e-05
9.83884e-05
9.79711e-05
9.75433e-05
9.71253e-05
9.66203e-05
9.65947e-05
7.58675e-05
7.60355e-05
7.66195e-05
7.74773e-05
7.85084e-05
7.96678e-05
8.09078e-05
8.21834e-05
8.34576e-05
8.47006e-05
8.58896e-05
8.70103e-05
8.80537e-05
8.90119e-05
8.98757e-05
9.06336e-05
9.12744e-05
9.17889e-05
9.21733e-05
9.24296e-05
9.25569e-05
9.25738e-05
9.25143e-05
9.23899e-05
9.22146e-05
9.20021e-05
9.17631e-05
9.15059e-05
9.12362e-05
9.09584e-05
9.06759e-05
9.03915e-05
9.01052e-05
8.98193e-05
8.95337e-05
8.92478e-05
8.89588e-05
8.86751e-05
8.83748e-05
8.81282e-05
8.77088e-05
6.93855e-05
6.96058e-05
7.02175e-05
7.10436e-05
7.19904e-05
7.30367e-05
7.41592e-05
7.53328e-05
7.65311e-05
7.77232e-05
7.88756e-05
7.99592e-05
8.09559e-05
8.18606e-05
8.26811e-05
8.34318e-05
8.41281e-05
8.47799e-05
8.53908e-05
8.59565e-05
8.64703e-05
8.69239e-05
8.73231e-05
8.76507e-05
8.79009e-05
8.80743e-05
8.81734e-05
8.82016e-05
8.8164e-05
8.8067e-05
8.7917e-05
8.77201e-05
8.7484e-05
8.72138e-05
8.69171e-05
8.6594e-05
8.62568e-05
8.58996e-05
8.55639e-05
8.50726e-05
8.53365e-05
6.34526e-05
6.37156e-05
6.43509e-05
6.51509e-05
6.60209e-05
6.69439e-05
6.79037e-05
6.88908e-05
6.99047e-05
7.09455e-05
7.20051e-05
7.30631e-05
7.40851e-05
7.50267e-05
7.58427e-05
7.64972e-05
7.69706e-05
7.72623e-05
7.73867e-05
7.73721e-05
7.72314e-05
7.70016e-05
7.67257e-05
7.64308e-05
7.61346e-05
7.58506e-05
7.55883e-05
7.53546e-05
7.51533e-05
7.49858e-05
7.48517e-05
7.47492e-05
7.46744e-05
7.46243e-05
7.45974e-05
7.45913e-05
7.45876e-05
7.46067e-05
7.45851e-05
7.47594e-05
7.41027e-05
5.80146e-05
5.82557e-05
5.88402e-05
5.95753e-05
6.03954e-05
6.12877e-05
6.22144e-05
6.31319e-05
6.40088e-05
6.48327e-05
6.56125e-05
6.63773e-05
6.71676e-05
6.80233e-05
6.89727e-05
7.00249e-05
7.11676e-05
7.23702e-05
7.35913e-05
7.47814e-05
7.5914e-05
7.69514e-05
7.78744e-05
7.86547e-05
7.92882e-05
7.97816e-05
8.01446e-05
8.0388e-05
8.05234e-05
8.0562e-05
8.05144e-05
8.03897e-05
8.01984e-05
7.99467e-05
7.96427e-05
7.92879e-05
7.8901e-05
7.8467e-05
7.80636e-05
7.73769e-05
7.79356e-05
5.30945e-05
5.32483e-05
5.36367e-05
5.40908e-05
5.46212e-05
5.52967e-05
5.61434e-05
5.71478e-05
5.82595e-05
5.93951e-05
6.04537e-05
6.13378e-05
6.19732e-05
6.23214e-05
6.23847e-05
6.22021e-05
6.18371e-05
6.13626e-05
6.08427e-05
6.03386e-05
5.98358e-05
5.93422e-05
5.88523e-05
5.83943e-05
5.79745e-05
5.75981e-05
5.72772e-05
5.70285e-05
5.68652e-05
5.67924e-05
5.681e-05
5.69167e-05
5.71078e-05
5.73785e-05
5.7724e-05
5.81419e-05
5.86025e-05
5.91339e-05
5.96245e-05
6.04923e-05
5.99465e-05
4.88284e-05
4.90322e-05
4.93506e-05
4.95388e-05
4.95923e-05
4.96013e-05
4.96437e-05
4.97972e-05
5.01494e-05
5.07936e-05
5.18116e-05
5.32495e-05
5.50957e-05
5.72777e-05
5.96794e-05
6.21672e-05
6.46145e-05
6.69163e-05
6.90005e-05
7.08065e-05
7.23621e-05
7.3682e-05
7.47508e-05
7.5583e-05
7.62143e-05
7.66803e-05
7.70048e-05
7.72242e-05
7.73448e-05
7.73965e-05
7.73941e-05
7.73388e-05
7.72329e-05
7.70742e-05
7.6869e-05
7.66178e-05
7.63335e-05
7.59977e-05
7.56694e-05
7.51871e-05
7.52453e-05
4.52359e-05
4.56263e-05
4.6217e-05
4.67102e-05
4.69764e-05
4.69796e-05
4.67058e-05
4.61844e-05
4.55012e-05
4.47903e-05
4.42148e-05
4.39317e-05
4.4045e-05
4.45668e-05
4.54168e-05
4.64575e-05
4.75424e-05
4.85507e-05
4.94034e-05
5.00647e-05
5.05032e-05
5.07164e-05
5.062e-05
5.03149e-05
4.98735e-05
4.93371e-05
4.87704e-05
4.82986e-05
4.80423e-05
4.79705e-05
4.79865e-05
4.805e-05
4.81514e-05
4.82832e-05
4.84399e-05
4.86065e-05
4.8795e-05
4.89344e-05
4.92764e-05
4.87439e-05
5.15314e-05
4.19897e-05
4.1907e-05
4.25818e-05
4.46777e-05
4.82851e-05
5.28262e-05
5.75992e-05
6.21352e-05
6.61946e-05
6.96753e-05
7.25479e-05
7.48203e-05
7.65229e-05
7.76984e-05
7.83981e-05
7.86789e-05
7.86013e-05
7.82259e-05
7.76112e-05
7.68035e-05
7.58592e-05
7.50036e-05
7.41014e-05
7.32102e-05
7.23508e-05
7.15224e-05
7.07511e-05
6.9916e-05
6.89936e-05
6.80592e-05
6.71323e-05
6.62099e-05
6.5275e-05
6.43015e-05
6.32792e-05
6.2193e-05
6.10198e-05
5.9738e-05
5.82363e-05
5.72169e-05
5.34285e-05
0.416254
0.27324
0.213817
0.180475
0.157281
0.138694
0.122731
0.10846
0.0952767
0.0828688
0.0709872
0.0594792
0.0482845
0.0374375
0.0271617
0.0178481
0.00984017
0.00403704
0.000537572
0.00110285
0.000454491
0.00010052
0.000176696
0.000240276
0.000279383
0.000274958
0.000251332
0.000229011
0.00021567
0.000205862
0.000195983
0.000185174
0.000173813
0.000162297
0.000150849
0.000139636
0.0001289
0.000118826
0.000109619
0.000101365
9.41276e-05
8.78746e-05
8.25446e-05
7.79199e-05
7.39063e-05
6.92403e-05
6.51668e-05
6.21131e-05
5.90517e-05
5.57743e-05
5.23563e-05
4.89558e-05
4.56123e-05
4.24102e-05
3.93718e-05
3.66016e-05
3.41707e-05
3.20815e-05
3.0773e-05
3.00363e-05
2.97876e-05
3.00844e-05
3.06933e-05
3.15687e-05
3.25327e-05
3.35324e-05
3.45532e-05
3.55216e-05
3.65477e-05
3.73662e-05
3.85518e-05
3.88515e-05
4.07768e-05
3.99698e-05
0.6829
0.419773
0.301618
0.240856
0.203267
0.176598
0.155858
0.138626
0.123577
0.109965
0.0973021
0.0852563
0.0736041
0.0622074
0.0510032
0.0400351
0.0294191
0.0196357
0.0111975
0.00494605
0.00107261
0.00102903
0.000603024
0.000234068
5.06413e-05
0.000181204
0.000235238
0.000243156
0.000231559
0.000213112
0.000198096
0.000186091
0.000175189
0.000164398
0.000153453
0.000142396
0.000131461
0.000120918
0.000111081
0.000102184
9.43644e-05
8.76325e-05
8.19402e-05
7.70637e-05
7.30443e-05
6.74841e-05
6.35427e-05
6.00514e-05
5.69187e-05
5.38063e-05
5.05413e-05
4.72589e-05
4.40115e-05
4.09232e-05
3.80183e-05
3.54306e-05
3.31639e-05
3.15688e-05
3.05637e-05
2.98832e-05
2.96838e-05
3.00078e-05
3.06616e-05
3.15598e-05
3.25495e-05
3.35689e-05
3.46041e-05
3.55859e-05
3.66173e-05
3.74556e-05
3.86207e-05
3.89778e-05
4.08036e-05
4.01438e-05
0.39392
0.372859
0.317675
0.266638
0.228572
0.200002
0.177925
0.160045
0.144793
0.131219
0.118741
0.106986
0.0956997
0.0846948
0.0738359
0.0630346
0.052236
0.0415026
0.0310023
0.0211383
0.0125099
0.00596028
0.0017076
0.000412305
0.000349134
0.000123776
8.62838e-06
0.000145659
0.00019806
0.000212904
0.000212189
0.000199007
0.000182956
0.000168508
0.000155954
0.000144519
0.000133686
0.000123253
0.000113245
0.000103858
9.53257e-05
8.78435e-05
8.15099e-05
7.6201e-05
7.19339e-05
6.78121e-05
6.35752e-05
5.95353e-05
5.61128e-05
5.30339e-05
4.99374e-05
4.67666e-05
4.3588e-05
4.05236e-05
3.76402e-05
3.50608e-05
3.28484e-05
3.14752e-05
3.04067e-05
2.97681e-05
2.96205e-05
2.99553e-05
3.0654e-05
3.1568e-05
3.25818e-05
3.36197e-05
3.46675e-05
3.5662e-05
3.66976e-05
3.75567e-05
3.86976e-05
3.91149e-05
4.0835e-05
4.0328e-05
0.46248
0.314893
0.199738
0.190673
0.189201
0.180396
0.169757
0.15932
0.149305
0.139579
0.130038
0.12062
0.111261
0.101884
0.0924221
0.0828257
0.0730546
0.0630916
0.0529408
0.0426582
0.032445
0.0227078
0.0140517
0.00726754
0.00270429
3.59922e-05
0.000896462
4.61106e-05
9.51276e-05
7.61274e-05
0.000151566
0.000171229
0.000181775
0.000179586
0.000166894
0.000151918
0.000138064
0.000125766
0.000114791
0.000105024
9.63055e-05
8.85254e-05
8.16825e-05
7.57737e-05
7.08204e-05
6.74902e-05
6.38307e-05
5.98864e-05
5.63037e-05
5.31841e-05
5.02467e-05
4.72457e-05
4.41685e-05
4.11106e-05
3.81862e-05
3.55117e-05
3.31718e-05
3.14637e-05
3.02679e-05
2.96634e-05
2.95807e-05
2.99445e-05
3.06677e-05
3.16005e-05
3.26358e-05
3.36908e-05
3.47499e-05
3.57559e-05
3.67938e-05
3.76712e-05
3.87902e-05
3.92617e-05
4.08848e-05
4.05104e-05
0.356113
0.328794
0.269892
0.206548
0.148209
0.106689
0.0991011
0.107958
0.114921
0.118019
0.11813
0.116119
0.112539
0.10773
0.101919
0.095291
0.0879853
0.0800927
0.0716745
0.0627743
0.0534495
0.0437939
0.0340342
0.0245265
0.0159373
0.00875437
0.00374612
0.000616262
7.56123e-05
0.000220904
0.000213635
0.000140987
0.000103333
0.00013473
0.000148948
0.000156012
0.000150445
0.000137475
0.000122972
0.000109622
9.80261e-05
8.84447e-05
8.08242e-05
7.47644e-05
6.9669e-05
6.61844e-05
6.29099e-05
5.92508e-05
5.5552e-05
5.22295e-05
4.93126e-05
4.65408e-05
4.37298e-05
4.08621e-05
3.8051e-05
3.54403e-05
3.3174e-05
3.12758e-05
3.00577e-05
2.95498e-05
2.95642e-05
2.99765e-05
3.0713e-05
3.16578e-05
3.27091e-05
3.37805e-05
3.48505e-05
3.58669e-05
3.69058e-05
3.77995e-05
3.88981e-05
3.94169e-05
4.09533e-05
4.06952e-05
0.262882
0.259003
0.244827
0.226517
0.203495
0.176934
0.148887
0.120196
0.091193
0.0645053
0.0591641
0.0722304
0.0826938
0.0889241
0.0917865
0.092069
0.0903379
0.0869783
0.0822752
0.0764522
0.0696841
0.0621014
0.0538269
0.0449917
0.0358396
0.0267278
0.0181771
0.0107995
0.00529739
0.00159125
0.000299315
0.000435552
0.00012124
8.51008e-05
3.44529e-05
0.000100056
0.000112213
0.000120808
0.000125209
0.00012046
0.000109332
9.65817e-05
8.46955e-05
7.48803e-05
6.74585e-05
6.28379e-05
5.99316e-05
5.7334e-05
5.43704e-05
5.11758e-05
4.81056e-05
4.52697e-05
4.25774e-05
3.99202e-05
3.73142e-05
3.48603e-05
3.27242e-05
3.0926e-05
2.98173e-05
2.94396e-05
2.9584e-05
3.00696e-05
3.08212e-05
3.17614e-05
3.28141e-05
3.38953e-05
3.49743e-05
3.6e-05
3.70386e-05
3.79465e-05
3.90248e-05
3.9584e-05
4.10416e-05
4.08912e-05
0.187539
0.184385
0.180031
0.176879
0.173277
0.168226
0.161231
0.151963
0.140268
0.126178
0.109904
0.0915877
0.071083
0.0485857
0.0404443
0.0549568
0.0658689
0.0724103
0.0756077
0.076193
0.0746804
0.0714402
0.0667544
0.060846
0.0539083
0.0461439
0.0377868
0.0291984
0.0208589
0.0133447
0.00738143
0.0032086
0.000537543
9.94262e-05
0.000255804
0.000251948
0.000154471
5.12235e-05
7.88436e-05
7.94713e-05
8.68056e-05
9.34786e-05
9.21578e-05
8.45383e-05
7.45735e-05
6.5247e-05
5.81393e-05
5.34743e-05
5.04435e-05
4.80996e-05
4.59075e-05
4.36698e-05
4.13351e-05
3.88887e-05
3.64146e-05
3.40636e-05
3.20419e-05
3.04692e-05
2.95483e-05
2.93222e-05
2.96241e-05
3.02228e-05
3.10127e-05
3.1942e-05
3.29758e-05
3.40506e-05
3.51303e-05
3.61614e-05
3.71974e-05
3.81162e-05
3.91745e-05
3.97659e-05
4.11524e-05
4.11037e-05
0.111165
0.109236
0.107538
0.107811
0.109533
0.112363
0.115739
0.118956
0.121228
0.121869
0.120378
0.116452
0.109963
0.100886
0.0892929
0.0752614
0.0585731
0.0386129
0.0311649
0.046119
0.0560001
0.0616693
0.0641971
0.0642291
0.0622105
0.0584768
0.0532983
0.0469339
0.039659
0.03183
0.0238785
0.0164564
0.0100121
0.00514542
0.00178668
0.000234395
0.000486735
4.47472e-05
4.78701e-05
7.3769e-05
7.43225e-05
5.92289e-05
5.18173e-05
5.32104e-05
6.24596e-05
6.70047e-05
6.45035e-05
5.87075e-05
5.23549e-05
4.68392e-05
4.27304e-05
3.9951e-05
3.80788e-05
3.65621e-05
3.49964e-05
3.32566e-05
3.15322e-05
3.01344e-05
2.93476e-05
2.92619e-05
2.97275e-05
3.04623e-05
3.131e-05
3.2224e-05
3.3214e-05
3.42569e-05
3.53234e-05
3.63557e-05
3.73883e-05
3.83149e-05
3.9353e-05
3.9966e-05
4.12882e-05
4.13354e-05
0.0429218
0.0422641
0.041611
0.0419557
0.0432326
0.0455432
0.049155
0.0540642
0.0600667
0.0668112
0.0738139