/*--------------------------------*- C++ -*----------------------------------*\
| =========                 |                                                 |
| \\      /  F ield         | OpenFOAM: The Open Source CFD Toolbox           |
|  \\    /   O peration     | Version:  2312                                  |
|   \\  /    A nd           | Website:  www.openfoam.com                      |
|    \\/     M anipulation  |                                                 |
\*---------------------------------------------------------------------------*/
FoamFile
{
    version     2.0;
    format      ascii;
    arch        "LSB;label=32;scalar=64";
    class       volScalarField;
    location    "250";
    object      turbulenceProperties:nut;
}
// * * * * * * * * * * * * * * * * * * * * * * * * * * * * * * * * * * * * * //

dimensions      [0 2 -1 0 0 0 0];

internalField   nonuniform List<scalar> 
11040
(
2.7527e-05
6.05845e-05
0.000109413
0.000181234
0.00030622
0.000750877
0.000912835
0.000932315
0.000997417
0.00119183
0.00157136
0.00170825
0.00172322
0.00173463
0.00176589
0.00180034
0.00182643
0.00183938
0.00183969
0.00182994
0.00180942
0.00178062
0.00175024
0.00172014
0.00168883
0.0016553
0.001619
0.00157964
0.00153648
0.00148863
0.00143521
0.00137533
0.00130792
0.00122941
0.00111789
0.000884107
0.000737492
0.000675219
0.000612889
0.000586694
0.000738012
5.25327e-06
6.11581e-06
2.32043e-05
8.4616e-05
0.000166736
0.000390038
0.000727678
0.00118573
0.00187319
0.00277579
0.0034848
0.00386535
0.00403749
0.00412388
0.0041823
0.00421606
0.00421011
0.00416037
0.00408208
0.00399597
0.00391531
0.00384794
0.00378845
0.00372887
0.00366842
0.00361277
0.00356429
0.00352217
0.00348453
0.00344992
0.00341752
0.00338694
0.0033576
0.00332708
0.00328543
0.00319918
0.00311925
0.00305782
0.00303423
0.00301797
0.00373131
6.35754e-06
6.6124e-06
6.0176e-06
9.29669e-06
2.24035e-05
7.13738e-05
0.000187868
0.000362265
0.000605581
0.000927673
0.00137086
0.00194057
0.00260871
0.00331651
0.00398128
0.00452495
0.00490828
0.00514326
0.00528333
0.00538574
0.005476
0.00555375
0.00561542
0.00566265
0.00569447
0.00571838
0.00573859
0.00575597
0.0057695
0.00577837
0.00578259
0.00578289
0.00578042
0.00577507
0.00576502
0.00574313
0.00572277
0.00570338
0.00571102
0.00567378
0.00620402
6.1437e-06
6.19664e-06
6.185e-06
5.53719e-06
4.97734e-06
3.47265e-06
3.83147e-06
1.19001e-05
4.01892e-05
8.70012e-05
0.000143744
0.00021385
0.000325486
0.000524644
0.000857361
0.00135567
0.00201852
0.0028034
0.00363173
0.00441238
0.00507536
0.00557756
0.00593508
0.00620753
0.00643166
0.00662776
0.00680415
0.00696306
0.0071053
0.00723248
0.00734704
0.00745147
0.0075478
0.00763669
0.00771792
0.00778937
0.00785636
0.0079161
0.00799623
0.00803029
0.00837604
6.14518e-06
6.14934e-06
6.18006e-06
6.13786e-06
5.87702e-06
4.88196e-06
2.92192e-06
1.08351e-06
2.40687e-07
2.86117e-08
6.2983e-10
1.2394e-05
9.5475e-07
2.1743e-06
2.03871e-07
8.94016e-06
0.000102887
0.000285589
0.000594645
0.00107974
0.00177198
0.00259859
0.00344325
0.00424896
0.00497749
0.00561041
0.00615003
0.00660968
0.00700771
0.00736192
0.00768635
0.00799008
0.00827775
0.00855133
0.00881077
0.00905419
0.0092838
0.00949812
0.00971832
0.00990795
0.0101755
6.11835e-06
6.12019e-06
6.12293e-06
6.12882e-06
6.13786e-06
6.12524e-06
5.87218e-06
5.07345e-06
3.92477e-06
2.78695e-06
1.8803e-06
1.25565e-06
1.03269e-06
6.11196e-07
3.47689e-07
5.36889e-09
2.66936e-06
3.34878e-08
2.0877e-08
7.1344e-07
7.89971e-05
0.000259333
0.000534898
0.000931057
0.00144332
0.00205945
0.00275709
0.00350837
0.00428463
0.00505955
0.00581211
0.00652857
0.00720186
0.00783269
0.00842424
0.00897931
0.00950235
0.00999858
0.0104778
0.0109305
0.0113525
6.11387e-06
6.11731e-06
6.1207e-06
6.12455e-06
6.12685e-06
6.14017e-06
6.18948e-06
6.25422e-06
6.26784e-06
6.22236e-06
6.13944e-06
5.99896e-06
5.65707e-06
5.52842e-06
5.33036e-06
4.69045e-06
3.73989e-06
2.60957e-06
1.34566e-06
7.0626e-08
1.67519e-06
2.48363e-05
8.5404e-06
6.76658e-06
1.04031e-05
0.000111247
0.000272826
0.000511203
0.000851092
0.00130623
0.00188461
0.00258751
0.00340383
0.00431861
0.00530827
0.00634031
0.00737946
0.0084053
0.00939122
0.0103154
0.0112252
6.11345e-06
6.1165e-06
6.11847e-06
6.12042e-06
6.12249e-06
6.12379e-06
6.1273e-06
6.14674e-06
6.18806e-06
6.25519e-06
6.3367e-06
6.41146e-06
6.47176e-06
6.53559e-06
6.57809e-06
6.68181e-06
6.70168e-06
6.42561e-06
6.23916e-06
5.23497e-06
3.7294e-06
2.09144e-06
1.21533e-06
1.58058e-08
1.53251e-07
2.2065e-06
1.06556e-09
7.53053e-05
0.000151413
8.33863e-07
6.81346e-05
0.0002248
0.000453764
0.000809015
0.00133053
0.00203813
0.0029391
0.00403892
0.0053077
0.00666442
0.00829087
6.11275e-06
6.11494e-06
6.11588e-06
6.11668e-06
6.11775e-06
6.11905e-06
6.12029e-06
6.12082e-06
6.12225e-06
6.12723e-06
6.13803e-06
6.15484e-06
6.17547e-06
6.20167e-06
6.23193e-06
6.27393e-06
6.32422e-06
6.39825e-06
6.45008e-06
6.58767e-06
6.72535e-06
6.35917e-06
5.67213e-06
5.08735e-06
4.00803e-06
2.88597e-06
1.63742e-06
6.44474e-07
1.93299e-09
2.46283e-08
5.57205e-07
8.51945e-06
5.59271e-05
1.97818e-05
2.54995e-05
8.29376e-05
0.000287611
0.000629691
0.00118814
0.00194278
0.0032469
6.11176e-06
6.11273e-06
6.1125e-06
6.11221e-06
6.11225e-06
6.11267e-06
6.11332e-06
6.11403e-06
6.1144e-06
6.114e-06
6.11254e-06
6.11141e-06
6.11087e-06
6.11122e-06
6.11252e-06
6.11481e-06
6.11959e-06
6.12945e-06
6.14816e-06
6.17935e-06
6.23334e-06
6.3286e-06
6.4131e-06
6.56438e-06
6.61957e-06
6.49662e-06
6.14313e-06
5.78533e-06
4.8794e-06
3.61322e-06
2.21744e-06
1.13037e-06
2.01999e-07
9.14467e-10
1.23447e-07
4.56461e-07
1.09616e-05
8.38118e-05
5.62773e-05
8.01058e-05
0.00035588
6.11021e-06
6.10984e-06
6.10869e-06
6.10774e-06
6.10724e-06
6.10717e-06
6.10742e-06
6.10786e-06
6.10833e-06
6.10869e-06
6.10879e-06
6.10828e-06
6.10787e-06
6.10735e-06
6.10668e-06
6.10572e-06
6.10446e-06
6.10291e-06
6.10171e-06
6.10012e-06
6.09839e-06
6.10326e-06
6.11804e-06
6.15009e-06
6.19896e-06
6.26069e-06
6.33929e-06
6.41284e-06
6.55723e-06
6.5585e-06
6.37655e-06
5.90767e-06
5.06889e-06
3.5943e-06
2.43583e-06
1.08836e-06
1.23084e-07
3.1268e-09
1.60024e-07
2.4413e-07
1.32048e-05
6.10798e-06
6.10654e-06
6.10496e-06
6.10392e-06
6.10337e-06
6.1032e-06
6.1033e-06
6.10356e-06
6.10388e-06
6.10414e-06
6.10435e-06
6.10421e-06
6.10427e-06
6.10448e-06
6.10476e-06
6.10503e-06
6.10523e-06
6.10525e-06
6.10506e-06
6.10457e-06
6.10321e-06
6.10068e-06
6.09826e-06
6.09605e-06
6.09523e-06
6.09736e-06
6.1059e-06
6.12233e-06
6.1554e-06
6.20611e-06
6.27287e-06
6.3528e-06
6.46355e-06
6.56297e-06
6.52512e-06
6.16704e-06
5.17562e-06
3.45693e-06
1.4633e-06
6.0411e-07
1.96041e-09
6.10522e-06
6.10338e-06
6.10201e-06
6.10133e-06
6.10107e-06
6.10107e-06
6.10123e-06
6.10147e-06
6.10175e-06
6.10201e-06
6.10221e-06
6.10232e-06
6.10217e-06
6.10222e-06
6.1024e-06
6.10267e-06
6.10302e-06
6.10341e-06
6.10381e-06
6.10426e-06
6.10461e-06
6.10464e-06
6.10437e-06
6.10374e-06
6.10268e-06
6.10119e-06
6.09943e-06
6.0978e-06
6.09671e-06
6.09724e-06
6.10001e-06
6.10932e-06
6.13057e-06
6.18037e-06
6.26537e-06
6.37376e-06
6.512e-06
6.65382e-06
6.47332e-06
6.2287e-06
4.20612e-06
6.10241e-06
6.10091e-06
6.10019e-06
6.10002e-06
6.10009e-06
6.10025e-06
6.10045e-06
6.10068e-06
6.10093e-06
6.10115e-06
6.10134e-06
6.10149e-06
6.10156e-06
6.10145e-06
6.10147e-06
6.10157e-06
6.10175e-06
6.10198e-06
6.10225e-06
6.10259e-06
6.10292e-06
6.10317e-06
6.10339e-06
6.10357e-06
6.10372e-06
6.1038e-06
6.10374e-06
6.10354e-06
6.10308e-06
6.10227e-06
6.10085e-06
6.09887e-06
6.09672e-06
6.09545e-06
6.09834e-06
6.10927e-06
6.13554e-06
6.20083e-06
6.30581e-06
6.47256e-06
6.63944e-06
6.10003e-06
6.09945e-06
6.09941e-06
6.09959e-06
6.09977e-06
6.09993e-06
6.10009e-06
6.10025e-06
6.10043e-06
6.10061e-06
6.10079e-06
6.10096e-06
6.1011e-06
6.10121e-06
6.10123e-06
6.10113e-06
6.10113e-06
6.10119e-06
6.10129e-06
6.10145e-06
6.10161e-06
6.10169e-06
6.10173e-06
6.10173e-06
6.10172e-06
6.10174e-06
6.10183e-06
6.10197e-06
6.10211e-06
6.10225e-06
6.10234e-06
6.10229e-06
6.10197e-06
6.10119e-06
6.09978e-06
6.09764e-06
6.095e-06
6.09237e-06
6.09912e-06
6.10957e-06
6.18061e-06
6.09837e-06
6.09894e-06
6.09924e-06
6.09941e-06
6.09949e-06
6.09953e-06
6.09957e-06
6.09961e-06
6.09968e-06
6.09977e-06
6.09989e-06
6.10003e-06
6.10019e-06
6.10034e-06
6.10048e-06
6.10059e-06
6.10067e-06
6.10073e-06
6.1007e-06
6.10066e-06
6.10059e-06
6.10064e-06
6.10071e-06
6.10079e-06
6.10087e-06
6.10096e-06
6.10104e-06
6.10113e-06
6.10121e-06
6.10131e-06
6.10141e-06
6.10152e-06
6.10164e-06
6.10174e-06
6.10179e-06
6.1017e-06
6.10137e-06
6.10024e-06
6.09854e-06
6.09514e-06
6.09343e-06
6.09742e-06
6.0988e-06
6.09911e-06
6.09912e-06
6.09905e-06
6.09896e-06
6.09887e-06
6.09874e-06
6.09868e-06
6.09867e-06
6.09867e-06
6.0987e-06
6.09874e-06
6.09878e-06
6.09882e-06
6.0988e-06
6.09876e-06
6.09878e-06
6.09885e-06
6.09895e-06
6.09905e-06
6.09913e-06
6.09919e-06
6.09924e-06
6.09927e-06
6.09928e-06
6.09928e-06
6.09928e-06
6.09928e-06
6.09928e-06
6.09928e-06
6.09929e-06
6.09931e-06
6.09933e-06
6.09937e-06
6.09941e-06
6.09951e-06
6.09962e-06
6.09956e-06
6.09955e-06
6.09879e-06
6.09674e-06
6.09835e-06
6.0987e-06
6.09868e-06
6.09858e-06
6.09848e-06
6.0984e-06
6.09836e-06
6.09835e-06
6.09837e-06
6.09842e-06
6.09848e-06
6.09856e-06
6.09865e-06
6.09877e-06
6.09889e-06
6.09904e-06
6.09921e-06
6.09938e-06
6.09959e-06
6.09979e-06
6.09998e-06
6.10016e-06
6.10033e-06
6.10048e-06
6.10063e-06
6.10077e-06
6.1009e-06
6.10103e-06
6.10115e-06
6.10127e-06
6.10138e-06
6.10149e-06
6.10159e-06
6.10169e-06
6.10178e-06
6.10186e-06
6.10193e-06
6.10205e-06
6.10206e-06
6.10232e-06
6.09619e-06
6.09778e-06
6.09803e-06
6.09789e-06
6.09769e-06
6.09752e-06
6.09741e-06
6.09734e-06
6.09732e-06
6.09734e-06
6.09738e-06
6.09745e-06
6.09753e-06
6.09762e-06
6.09773e-06
6.09785e-06
6.09799e-06
6.09813e-06
6.09829e-06
6.09847e-06
6.09866e-06
6.09886e-06
6.09905e-06
6.09923e-06
6.09942e-06
6.09959e-06
6.09977e-06
6.09995e-06
6.10012e-06
6.1003e-06
6.10047e-06
6.10065e-06
6.10083e-06
6.10101e-06
6.1012e-06
6.10139e-06
6.10157e-06
6.10176e-06
6.10197e-06
6.10211e-06
6.10244e-06
6.09588e-06
6.09732e-06
6.0974e-06
6.09715e-06
6.09689e-06
6.09671e-06
6.0966e-06
6.09655e-06
6.09654e-06
6.09657e-06
6.09663e-06
6.09671e-06
6.0968e-06
6.09691e-06
6.09702e-06
6.09714e-06
6.09727e-06
6.09741e-06
6.09756e-06
6.09772e-06
6.09788e-06
6.09805e-06
6.0982e-06
6.09836e-06
6.0985e-06
6.09864e-06
6.09878e-06
6.09892e-06
6.09905e-06
6.09919e-06
6.09932e-06
6.09946e-06
6.0996e-06
6.09974e-06
6.09989e-06
6.10004e-06
6.10018e-06
6.10034e-06
6.10051e-06
6.10066e-06
6.10089e-06
6.09563e-06
6.0968e-06
6.09671e-06
6.09639e-06
6.09612e-06
6.09595e-06
6.09586e-06
6.09584e-06
6.09586e-06
6.09591e-06
6.09599e-06
6.09609e-06
6.0962e-06
6.09632e-06
6.09644e-06
6.09658e-06
6.09671e-06
6.09686e-06
6.09701e-06
6.09716e-06
6.09732e-06
6.09748e-06
6.09763e-06
6.09778e-06
6.09792e-06
6.09805e-06
6.09818e-06
6.09831e-06
6.09843e-06
6.09855e-06
6.09867e-06
6.09879e-06
6.09891e-06
6.09903e-06
6.09915e-06
6.09927e-06
6.09939e-06
6.09952e-06
6.09964e-06
6.09978e-06
6.0999e-06
6.09535e-06
6.09622e-06
6.09601e-06
6.09566e-06
6.0954e-06
6.09526e-06
6.09521e-06
6.09522e-06
6.09527e-06
6.09535e-06
6.09546e-06
6.09557e-06
6.0957e-06
6.09583e-06
6.09597e-06
6.09612e-06
6.09627e-06
6.09642e-06
6.09657e-06
6.09674e-06
6.0969e-06
6.09706e-06
6.09722e-06
6.09736e-06
6.0975e-06
6.09764e-06
6.09777e-06
6.0979e-06
6.09802e-06
6.09814e-06
6.09826e-06
6.09838e-06
6.09849e-06
6.09861e-06
6.09872e-06
6.09884e-06
6.09895e-06
6.09908e-06
6.09918e-06
6.09932e-06
6.0994e-06
6.095e-06
6.09559e-06
6.0953e-06
6.09496e-06
6.09474e-06
6.09464e-06
6.09462e-06
6.09467e-06
6.09475e-06
6.09486e-06
6.09499e-06
6.09513e-06
6.09528e-06
6.09543e-06
6.09558e-06
6.09574e-06
6.0959e-06
6.09607e-06
6.09623e-06
6.0964e-06
6.09657e-06
6.09674e-06
6.0969e-06
6.09705e-06
6.0972e-06
6.09734e-06
6.09748e-06
6.09761e-06
6.09773e-06
6.09786e-06
6.09798e-06
6.0981e-06
6.09821e-06
6.09833e-06
6.09844e-06
6.09856e-06
6.09867e-06
6.09879e-06
6.09889e-06
6.09903e-06
6.09908e-06
6.09456e-06
6.09493e-06
6.09461e-06
6.0943e-06
6.09412e-06
6.09406e-06
6.09409e-06
6.09417e-06
6.09428e-06
6.09442e-06
6.09458e-06
6.09474e-06
6.09491e-06
6.09508e-06
6.09525e-06
6.09542e-06
6.0956e-06
6.09577e-06
6.09595e-06
6.09613e-06
6.0963e-06
6.09648e-06
6.09665e-06
6.09681e-06
6.09697e-06
6.09711e-06
6.09726e-06
6.09739e-06
6.09753e-06
6.09766e-06
6.09778e-06
6.09791e-06
6.09803e-06
6.09815e-06
6.09827e-06
6.09838e-06
6.09849e-06
6.09861e-06
6.09871e-06
6.09886e-06
6.0989e-06
6.09405e-06
6.09427e-06
6.09393e-06
6.09366e-06
6.09353e-06
6.09352e-06
6.09359e-06
6.0937e-06
6.09385e-06
6.09402e-06
6.0942e-06
6.09438e-06
6.09457e-06
6.09476e-06
6.09495e-06
6.09514e-06
6.09532e-06
6.09551e-06
6.0957e-06
6.09589e-06
6.09608e-06
6.09626e-06
6.09644e-06
6.09661e-06
6.09677e-06
6.09693e-06
6.09708e-06
6.09723e-06
6.09737e-06
6.0975e-06
6.09764e-06
6.09777e-06
6.09789e-06
6.09802e-06
6.09814e-06
6.09826e-06
6.09837e-06
6.09849e-06
6.0986e-06
6.09875e-06
6.09878e-06
6.0935e-06
6.09359e-06
6.09327e-06
6.09304e-06
6.09296e-06
6.093e-06
6.09311e-06
6.09326e-06
6.09344e-06
6.09363e-06
6.09383e-06
6.09404e-06
6.09425e-06
6.09445e-06
6.09466e-06
6.09486e-06
6.09507e-06
6.09527e-06
6.09547e-06
6.09567e-06
6.09587e-06
6.09606e-06
6.09625e-06
6.09643e-06
6.0966e-06
6.09676e-06
6.09692e-06
6.09708e-06
6.09722e-06
6.09737e-06
6.09751e-06
6.09764e-06
6.09777e-06
6.0979e-06
6.09803e-06
6.09815e-06
6.09827e-06
6.0984e-06
6.0985e-06
6.09866e-06
6.09869e-06
6.0929e-06
6.09291e-06
6.09261e-06
6.09244e-06
6.09241e-06
6.09249e-06
6.09263e-06
6.09282e-06
6.09303e-06
6.09325e-06
6.09347e-06
6.0937e-06
6.09392e-06
6.09415e-06
6.09437e-06
6.09459e-06
6.09481e-06
6.09502e-06
6.09523e-06
6.09544e-06
6.09565e-06
6.09586e-06
6.09606e-06
6.09624e-06
6.09642e-06
6.0966e-06
6.09676e-06
6.09692e-06
6.09708e-06
6.09723e-06
6.09737e-06
6.09751e-06
6.09765e-06
6.09779e-06
6.09792e-06
6.09805e-06
6.09817e-06
6.0983e-06
6.0984e-06
6.09856e-06
6.0986e-06
6.09227e-06
6.09222e-06
6.09196e-06
6.09183e-06
6.09186e-06
6.09198e-06
6.09216e-06
6.09237e-06
6.09261e-06
6.09285e-06
6.09309e-06
6.09334e-06
6.09358e-06
6.09382e-06
6.09406e-06
6.09429e-06
6.09452e-06
6.09475e-06
6.09498e-06
6.0952e-06
6.09542e-06
6.09563e-06
6.09584e-06
6.09603e-06
6.09622e-06
6.0964e-06
6.09658e-06
6.09674e-06
6.0969e-06
6.09706e-06
6.09721e-06
6.09736e-06
6.0975e-06
6.09764e-06
6.09777e-06
6.09791e-06
6.09803e-06
6.09816e-06
6.09827e-06
6.09842e-06
6.09848e-06
6.09161e-06
6.09152e-06
6.0913e-06
6.09123e-06
6.0913e-06
6.09146e-06
6.09166e-06
6.0919e-06
6.09216e-06
6.09242e-06
6.09268e-06
6.09295e-06
6.09321e-06
6.09346e-06
6.09371e-06
6.09396e-06
6.0942e-06
6.09444e-06
6.09468e-06
6.09491e-06
6.09514e-06
6.09536e-06
6.09558e-06
6.09578e-06
6.09598e-06
6.09616e-06
6.09634e-06
6.09652e-06
6.09668e-06
6.09684e-06
6.097e-06
6.09715e-06
6.0973e-06
6.09744e-06
6.09758e-06
6.09771e-06
6.09784e-06
6.09797e-06
6.09809e-06
6.09824e-06
6.0983e-06
6.09091e-06
6.09081e-06
6.09063e-06
6.09061e-06
6.09072e-06
6.09091e-06
6.09114e-06
6.0914e-06
6.09167e-06
6.09195e-06
6.09223e-06
6.0925e-06
6.09278e-06
6.09304e-06
6.09331e-06
6.09357e-06
6.09382e-06
6.09407e-06
6.09432e-06
6.09456e-06
6.0948e-06
6.09503e-06
6.09525e-06
6.09546e-06
6.09566e-06
6.09586e-06
6.09604e-06
6.09622e-06
6.09639e-06
6.09656e-06
6.09672e-06
6.09687e-06
6.09702e-06
6.09716e-06
6.0973e-06
6.09744e-06
6.09757e-06
6.0977e-06
6.09782e-06
6.09796e-06
6.09803e-06
6.09018e-06
6.09008e-06
6.08995e-06
6.08997e-06
6.09011e-06
6.09032e-06
6.09057e-06
6.09085e-06
6.09113e-06
6.09142e-06
6.0917e-06
6.09199e-06
6.09228e-06
6.09256e-06
6.09283e-06
6.0931e-06
6.09337e-06
6.09363e-06
6.09388e-06
6.09413e-06
6.09438e-06
6.09462e-06
6.09484e-06
6.09506e-06
6.09527e-06
6.09547e-06
6.09566e-06
6.09584e-06
6.09601e-06
6.09618e-06
6.09634e-06
6.0965e-06
6.09665e-06
6.0968e-06
6.09694e-06
6.09707e-06
6.0972e-06
6.09733e-06
6.09745e-06
6.09759e-06
6.09767e-06
6.08942e-06
6.08932e-06
6.08924e-06
6.0893e-06
6.08946e-06
6.08969e-06
6.08995e-06
6.09023e-06
6.09052e-06
6.09081e-06
6.09111e-06
6.0914e-06
6.09169e-06
6.09198e-06
6.09227e-06
6.09255e-06
6.09282e-06
6.09309e-06
6.09335e-06
6.09361e-06
6.09386e-06
6.0941e-06
6.09434e-06
6.09456e-06
6.09477e-06
6.09497e-06
6.09517e-06
6.09535e-06
6.09553e-06
6.0957e-06
6.09586e-06
6.09602e-06
6.09617e-06
6.09632e-06
6.09646e-06
6.09659e-06
6.09672e-06
6.09685e-06
6.09697e-06
6.0971e-06
6.09718e-06
6.08862e-06
6.08854e-06
6.08849e-06
6.08858e-06
6.08876e-06
6.08899e-06
6.08926e-06
6.08953e-06
6.08982e-06
6.09012e-06
6.09041e-06
6.09071e-06
6.09101e-06
6.09131e-06
6.0916e-06
6.09188e-06
6.09217e-06
6.09244e-06
6.09271e-06
6.09297e-06
6.09323e-06
6.09348e-06
6.09372e-06
6.09394e-06
6.09416e-06
6.09436e-06
6.09456e-06
6.09475e-06
6.09493e-06
6.0951e-06
6.09526e-06
6.09542e-06
6.09557e-06
6.09571e-06
6.09585e-06
6.09598e-06
6.09611e-06
6.09624e-06
6.09635e-06
6.09648e-06
6.09656e-06
6.08779e-06
6.08772e-06
6.08771e-06
6.08781e-06
6.088e-06
6.08823e-06
6.08848e-06
6.08875e-06
6.08903e-06
6.08932e-06
6.08962e-06
6.08992e-06
6.09022e-06
6.09052e-06
6.09082e-06
6.09111e-06
6.0914e-06
6.09168e-06
6.09195e-06
6.09222e-06
6.09248e-06
6.09273e-06
6.09297e-06
6.0932e-06
6.09342e-06
6.09363e-06
6.09382e-06
6.09401e-06
6.09419e-06
6.09436e-06
6.09452e-06
6.09468e-06
6.09483e-06
6.09497e-06
6.09511e-06
6.09524e-06
6.09536e-06
6.09548e-06
6.09559e-06
6.09571e-06
6.09579e-06
6.08691e-06
6.08686e-06
6.08687e-06
6.08698e-06
6.08716e-06
6.08737e-06
6.08761e-06
6.08787e-06
6.08814e-06
6.08842e-06
6.08871e-06
6.08901e-06
6.08931e-06
6.08961e-06
6.08991e-06
6.09021e-06
6.0905e-06
6.09079e-06
6.09106e-06
6.09133e-06
6.0916e-06
6.09185e-06
6.0921e-06
6.09233e-06
6.09254e-06
6.09275e-06
6.09295e-06
6.09314e-06
6.09332e-06
6.09349e-06
6.09365e-06
6.0938e-06
6.09395e-06
6.09408e-06
6.09422e-06
6.09434e-06
6.09446e-06
6.09458e-06
6.09468e-06
6.0948e-06
6.09487e-06
6.08598e-06
6.08595e-06
6.08597e-06
6.08608e-06
6.08624e-06
6.08643e-06
6.08664e-06
6.08688e-06
6.08713e-06
6.08741e-06
6.08769e-06
6.08798e-06
6.08828e-06
6.08858e-06
6.08888e-06
6.08918e-06
6.08947e-06
6.08976e-06
6.09004e-06
6.09031e-06
6.09058e-06
6.09084e-06
6.09108e-06
6.09131e-06
6.09153e-06
6.09174e-06
6.09193e-06
6.09212e-06
6.0923e-06
6.09246e-06
6.09262e-06
6.09277e-06
6.09291e-06
6.09305e-06
6.09317e-06
6.0933e-06
6.09341e-06
6.09352e-06
6.09362e-06
6.09373e-06
6.0938e-06
6.08499e-06
6.08498e-06
6.08501e-06
6.08509e-06
6.08522e-06
6.08538e-06
6.08557e-06
6.08578e-06
6.08602e-06
6.08627e-06
6.08655e-06
6.08683e-06
6.08713e-06
6.08742e-06
6.08772e-06
6.08802e-06
6.08831e-06
6.0886e-06
6.08888e-06
6.08915e-06
6.08942e-06
6.08967e-06
6.08991e-06
6.09014e-06
6.09036e-06
6.09057e-06
6.09076e-06
6.09094e-06
6.09112e-06
6.09128e-06
6.09144e-06
6.09158e-06
6.09172e-06
6.09185e-06
6.09197e-06
6.09208e-06
6.09219e-06
6.0923e-06
6.09239e-06
6.09249e-06
6.09255e-06
6.08395e-06
6.08394e-06
6.08396e-06
6.08402e-06
6.08411e-06
6.08423e-06
6.08438e-06
6.08457e-06
6.08478e-06
6.08502e-06
6.08528e-06
6.08556e-06
6.08584e-06
6.08613e-06
6.08643e-06
6.08672e-06
6.08701e-06
6.08729e-06
6.08757e-06
6.08784e-06
6.0881e-06
6.08835e-06
6.08859e-06
6.08882e-06
6.08903e-06
6.08923e-06
6.08942e-06
6.0896e-06
6.08977e-06
6.08993e-06
6.09008e-06
6.09022e-06
6.09035e-06
6.09048e-06
6.09059e-06
6.0907e-06
6.0908e-06
6.0909e-06
6.09098e-06
6.09107e-06
6.09113e-06
6.08285e-06
6.08284e-06
6.08283e-06
6.08285e-06
6.0829e-06
6.08298e-06
6.08309e-06
6.08325e-06
6.08344e-06
6.08365e-06
6.08389e-06
6.08415e-06
6.08442e-06
6.0847e-06
6.08499e-06
6.08527e-06
6.08555e-06
6.08583e-06
6.0861e-06
6.08637e-06
6.08662e-06
6.08686e-06
6.0871e-06
6.08732e-06
6.08752e-06
6.08772e-06
6.0879e-06
6.08808e-06
6.08824e-06
6.08839e-06
6.08853e-06
6.08867e-06
6.08879e-06
6.0889e-06
6.08901e-06
6.08911e-06
6.0892e-06
6.08929e-06
6.08936e-06
6.08944e-06
6.08949e-06
6.08167e-06
6.08165e-06
6.08161e-06
6.08158e-06
6.08158e-06
6.08162e-06
6.0817e-06
6.08182e-06
6.08198e-06
6.08217e-06
6.08238e-06
6.08262e-06
6.08287e-06
6.08313e-06
6.0834e-06
6.08366e-06
6.08393e-06
6.0842e-06
6.08446e-06
6.08471e-06
6.08495e-06
6.08518e-06
6.0854e-06
6.08561e-06
6.08581e-06
6.086e-06
6.08617e-06
6.08634e-06
6.08649e-06
6.08664e-06
6.08677e-06
6.08689e-06
6.08701e-06
6.08712e-06
6.08722e-06
6.08731e-06
6.08739e-06
6.08747e-06
6.08754e-06
6.08761e-06
6.08765e-06
6.08041e-06
6.08037e-06
6.08029e-06
6.08022e-06
6.08017e-06
6.08016e-06
6.08021e-06
6.08029e-06
6.08041e-06
6.08056e-06
6.08075e-06
6.08095e-06
6.08117e-06
6.0814e-06
6.08164e-06
6.08188e-06
6.08213e-06
6.08237e-06
6.08261e-06
6.08285e-06
6.08307e-06
6.08329e-06
6.08349e-06
6.08369e-06
6.08388e-06
6.08405e-06
6.08421e-06
6.08437e-06
6.08451e-06
6.08464e-06
6.08476e-06
6.08487e-06
6.08497e-06
6.08506e-06
6.08514e-06
6.08521e-06
6.08528e-06
6.08534e-06
6.08539e-06
6.08544e-06
6.08547e-06
6.07906e-06
6.079e-06
6.07888e-06
6.07876e-06
6.07867e-06
6.07862e-06
6.07862e-06
6.07866e-06
6.07874e-06
6.07885e-06
6.07898e-06
6.07914e-06
6.07932e-06
6.07951e-06
6.07971e-06
6.07992e-06
6.08013e-06
6.08034e-06
6.08055e-06
6.08076e-06
6.08095e-06
6.08114e-06
6.08133e-06
6.0815e-06
6.08166e-06
6.08182e-06
6.08196e-06
6.0821e-06
6.08222e-06
6.08234e-06
6.08245e-06
6.08255e-06
6.08264e-06
6.08273e-06
6.08281e-06
6.08288e-06
6.08294e-06
6.083e-06
6.08305e-06
6.0831e-06
6.08312e-06
6.07762e-06
6.07753e-06
6.07737e-06
6.07721e-06
6.07709e-06
6.077e-06
6.07696e-06
6.07696e-06
6.07698e-06
6.07703e-06
6.07711e-06
6.0772e-06
6.07732e-06
6.07745e-06
6.0776e-06
6.07776e-06
6.07792e-06
6.07808e-06
6.07825e-06
6.07842e-06
6.07857e-06
6.07873e-06
6.07888e-06
6.07903e-06
6.07917e-06
6.0793e-06
6.07942e-06
6.07953e-06
6.07963e-06
6.07973e-06
6.07981e-06
6.07988e-06
6.07994e-06
6.07999e-06
6.08004e-06
6.08007e-06
6.08009e-06
6.08011e-06
6.08012e-06
6.08013e-06
6.08012e-06
6.07608e-06
6.07596e-06
6.07577e-06
6.07559e-06
6.07544e-06
6.07533e-06
6.07525e-06
6.07519e-06
6.07515e-06
6.07514e-06
6.07514e-06
6.07516e-06
6.0752e-06
6.07526e-06
6.07532e-06
6.0754e-06
6.07549e-06
6.07558e-06
6.07568e-06
6.07578e-06
6.07587e-06
6.07597e-06
6.07606e-06
6.07615e-06
6.07624e-06
6.07632e-06
6.0764e-06
6.07648e-06
6.07655e-06
6.07662e-06
6.07668e-06
6.07674e-06
6.0768e-06
6.07685e-06
6.07691e-06
6.07695e-06
6.077e-06
6.07704e-06
6.07707e-06
6.07712e-06
6.07713e-06
6.07442e-06
6.07428e-06
6.07409e-06
6.0739e-06
6.07375e-06
6.07362e-06
6.0735e-06
6.0734e-06
6.07331e-06
6.07322e-06
6.07315e-06
6.07308e-06
6.07302e-06
6.07298e-06
6.07293e-06
6.0729e-06
6.07289e-06
6.07288e-06
6.07288e-06
6.0729e-06
6.07292e-06
6.07295e-06
6.07299e-06
6.07303e-06
6.07308e-06
6.07314e-06
6.07319e-06
6.07324e-06
6.07328e-06
6.07332e-06
6.07335e-06
6.07337e-06
6.07337e-06
6.07337e-06
6.07336e-06
6.07334e-06
6.0733e-06
6.07327e-06
6.07323e-06
6.07321e-06
6.07317e-06
6.07265e-06
6.07251e-06
6.07234e-06
6.07218e-06
6.07203e-06
6.0719e-06
6.07177e-06
6.07164e-06
6.0715e-06
6.07136e-06
6.07121e-06
6.07106e-06
6.0709e-06
6.07074e-06
6.07059e-06
6.07046e-06
6.07034e-06
6.07024e-06
6.07015e-06
6.07007e-06
6.07e-06
6.06995e-06
6.06993e-06
6.06992e-06
6.06993e-06
6.06994e-06
6.06996e-06
6.06998e-06
6.07001e-06
6.07003e-06
6.07004e-06
6.07006e-06
6.07007e-06
6.07007e-06
6.07006e-06
6.07005e-06
6.07005e-06
6.07005e-06
6.07006e-06
6.07009e-06
6.0701e-06
6.07074e-06
6.07064e-06
6.07052e-06
6.07041e-06
6.07031e-06
6.07021e-06
6.0701e-06
6.06997e-06
6.06983e-06
6.06966e-06
6.06947e-06
6.06923e-06
6.06901e-06
6.06882e-06
6.0687e-06
6.06868e-06
6.06873e-06
6.06882e-06
6.06894e-06
6.06906e-06
6.06918e-06
6.06928e-06
6.06938e-06
6.06949e-06
6.0696e-06
6.06969e-06
6.06978e-06
6.06986e-06
6.06994e-06
6.07001e-06
6.07007e-06
6.07012e-06
6.07016e-06
6.0702e-06
6.07023e-06
6.07026e-06
6.07028e-06
6.07031e-06
6.07032e-06
6.07034e-06
6.07036e-06
6.06869e-06
6.06865e-06
6.06861e-06
6.06858e-06
6.06855e-06
6.06852e-06
6.06849e-06
6.06844e-06
6.06837e-06
6.06828e-06
6.06816e-06
6.06796e-06
6.06789e-06
6.06797e-06
6.06818e-06
6.06848e-06
6.06887e-06
6.06933e-06
6.06985e-06
6.07042e-06
6.07104e-06
6.07171e-06
6.07241e-06
6.07314e-06
6.07388e-06
6.07467e-06
6.07543e-06
6.07617e-06
6.07687e-06
6.07752e-06
6.07813e-06
6.07869e-06
6.07921e-06
6.0797e-06
6.08014e-06
6.08055e-06
6.08093e-06
6.08128e-06
6.0816e-06
6.08192e-06
6.08217e-06
0.00450434
0.00620027
0.00703201
0.00749581
0.00775401
0.00785368
0.00781118
0.00763943
0.0073333
0.00690663
0.00636366
0.00570754
0.00494208
0.00407296
0.00313437
0.00218533
0.00125978
0.000549121
7.23386e-05
0.000146956
7.38317e-06
3.68745e-08
8.32048e-07
4.68056e-06
9.2438e-06
8.6854e-06
6.7107e-06
5.68849e-06
5.66151e-06
5.95287e-06
6.15239e-06
6.18523e-06
6.14357e-06
6.10649e-06
6.09601e-06
6.10337e-06
6.11542e-06
6.12485e-06
6.13017e-06
6.13265e-06
6.13381e-06
6.13437e-06
6.13438e-06
6.13372e-06
6.13245e-06
6.13086e-06
6.12914e-06
6.12759e-06
6.12635e-06
6.12547e-06
6.12492e-06
6.12462e-06
6.12453e-06
6.12459e-06
6.12478e-06
6.12508e-06
6.12545e-06
6.12593e-06
6.12644e-06
6.12703e-06
6.12768e-06
6.12839e-06
6.12916e-06
6.12999e-06
6.13085e-06
6.13175e-06
6.13269e-06
6.13364e-06
6.13461e-06
6.1356e-06
6.13658e-06
6.13762e-06
6.1384e-06
6.14006e-06
0.00647017
0.00838588
0.00936698
0.00986913
0.010143
0.0102648
0.0102567
0.0101332
0.0098972
0.00954925
0.00908821
0.00851168
0.00781694
0.00700145
0.00606408
0.00501699
0.0038677
0.00269945
0.00158915
0.000724921
0.000158516
0.000197424
2.60654e-05
1.10123e-06
5.72062e-09
1.98019e-06
7.59952e-06
8.97792e-06
7.5045e-06
6.11093e-06
5.67021e-06
5.76559e-06
5.99141e-06
6.13469e-06
6.16583e-06
6.14084e-06
6.11407e-06
6.10688e-06
6.11513e-06
6.1272e-06
6.1354e-06
6.13825e-06
6.13764e-06
6.13578e-06
6.13385e-06
6.13231e-06
6.13083e-06
6.12937e-06
6.12802e-06
6.1269e-06
6.1261e-06
6.12562e-06
6.1254e-06
6.1254e-06
6.12554e-06
6.12579e-06
6.12613e-06
6.12654e-06
6.12701e-06
6.12756e-06
6.12818e-06
6.12888e-06
6.12964e-06
6.13046e-06
6.13133e-06
6.13223e-06
6.13317e-06
6.13414e-06
6.13512e-06
6.13613e-06
6.13712e-06
6.13819e-06
6.13899e-06
6.14071e-06
0.00784814
0.00979929
0.0109244
0.0115858
0.0119874
0.0122018
0.0122791
0.0122516
0.0121289
0.0119067
0.0115783
0.0111392
0.0105854
0.00991244
0.00911253
0.00818006
0.00710697
0.00590359
0.0045899
0.00323422
0.00194881
0.000940032
0.000265188
4.12516e-05
4.22201e-06
8.55019e-08
4.54476e-12
9.53496e-07
5.95545e-06
9.03843e-06
8.565e-06
6.94624e-06
5.97363e-06
5.72891e-06
5.86715e-06
6.07127e-06
6.18009e-06
6.18804e-06
6.15409e-06
6.12621e-06
6.11888e-06
6.12515e-06
6.13389e-06
6.13874e-06
6.13889e-06
6.13647e-06
6.13349e-06
6.13104e-06
6.12933e-06
6.1282e-06
6.12743e-06
6.12688e-06
6.12653e-06
6.12636e-06
6.12637e-06
6.12654e-06
6.12684e-06
6.12721e-06
6.12765e-06
6.12816e-06
6.12876e-06
6.12943e-06
6.13017e-06
6.13098e-06
6.13184e-06
6.13275e-06
6.13369e-06
6.13467e-06
6.13567e-06
6.13669e-06
6.13771e-06
6.1388e-06
6.13962e-06
6.14141e-06
0.0100716
0.011333
0.0119653
0.0126249
0.0131325
0.0134367
0.0136218
0.0137325
0.0137696
0.0137172
0.0135656
0.0133131
0.0129566
0.0124887
0.0118989
0.0111766
0.0103116
0.00929567
0.00812274
0.00679201
0.00533313
0.00382442
0.00239526
0.0012503
0.000480962
2.55508e-07
0.000129679
1.68764e-09
6.03199e-08
7.06232e-08
2.83076e-06
6.8329e-06
8.41182e-06
7.65321e-06
6.40145e-06
5.76382e-06
5.69692e-06
5.89669e-06
6.09807e-06
6.19361e-06
6.19706e-06
6.1644e-06
6.13665e-06
6.1263e-06
6.12825e-06
6.13352e-06
6.13653e-06
6.13611e-06
6.13363e-06
6.13084e-06
6.12881e-06
6.12773e-06
6.12734e-06
6.1273e-06
6.12738e-06
6.12751e-06
6.12771e-06
6.12799e-06
6.12835e-06
6.12882e-06
6.12938e-06
6.13004e-06
6.13077e-06
6.13156e-06
6.13241e-06
6.13332e-06
6.13426e-06
6.13525e-06
6.13626e-06
6.1373e-06
6.13833e-06
6.13945e-06
6.14029e-06
6.14214e-06
0.0115109
0.0127125
0.0134304
0.0138384
0.0140689
0.0141537
0.0143159
0.0145168
0.0146868
0.014781
0.0147998
0.0147538
0.0146346
0.0144227
0.0140992
0.0136518
0.0130704
0.0123427
0.0114564
0.0103969
0.00915565
0.00773249
0.00616494
0.0045207
0.00296842
0.00161136
0.000688755
8.50106e-05
2.95599e-08
9.97565e-07
1.34168e-06
6.71311e-07
6.35521e-07
4.3411e-06
8.00766e-06
8.73318e-06
7.501e-06
6.318e-06
5.77391e-06
5.74731e-06
5.93278e-06
6.11212e-06
6.19769e-06
6.20115e-06
6.16996e-06
6.14083e-06
6.12714e-06
6.12614e-06
6.13002e-06
6.13304e-06
6.13337e-06
6.13181e-06
6.12984e-06
6.12846e-06
6.12792e-06
6.12801e-06
6.12841e-06
6.12887e-06
6.1293e-06
6.12972e-06
6.13018e-06
6.13073e-06
6.1314e-06
6.13218e-06
6.13303e-06
6.13394e-06
6.13489e-06
6.13588e-06
6.1369e-06
6.13795e-06
6.13901e-06
6.14016e-06
6.14101e-06
6.14293e-06
0.0122178
0.0131109
0.0138698
0.0144518
0.0148551
0.0150757
0.0151924
0.0152611
0.015297
0.0152765
0.015293
0.015373
0.0154518
0.0154731
0.0154094
0.015257
0.0150046
0.0146294
0.0141096
0.0134266
0.0125641
0.0115047
0.0102398
0.00876762
0.00712776
0.00539168
0.00368409
0.00216422
0.00105056
0.000290021
5.70554e-05
1.90927e-05
1.32076e-07
6.66042e-08
5.76297e-09
1.5077e-06
5.63169e-06
8.49523e-06
8.48774e-06
7.31479e-06
6.28083e-06
5.81968e-06
5.79291e-06
5.95394e-06
6.11535e-06
6.196e-06
6.20128e-06
6.17161e-06
6.14149e-06
6.12552e-06
6.12279e-06
6.12642e-06
6.13045e-06
6.13228e-06
6.13198e-06
6.13077e-06
6.12974e-06
6.12938e-06
6.12964e-06
6.13024e-06
6.13095e-06
6.13163e-06
6.1323e-06
6.13299e-06
6.13376e-06
6.13461e-06
6.13555e-06
6.13655e-06
6.13759e-06
6.13867e-06
6.13974e-06
6.14092e-06
6.14179e-06
6.14377e-06
0.011671
0.012083
0.0125741
0.01315
0.0137665
0.0143553
0.0148587
0.0152559
0.015547
0.0157279
0.0158243
0.0158732
0.0158888
0.0158541
0.0158166
0.0158408
0.0158664
0.0158257
0.0156778
0.0154052
0.0149885
0.0144016
0.0136189
0.0126167
0.0113804
0.00991526
0.00824287
0.00643516
0.0046076
0.00291433
0.00159085
0.000690917
8.42782e-05
1.58513e-07
2.88723e-06
3.81863e-06
1.39402e-06
6.79189e-08
1.84466e-06
5.48272e-06
8.22886e-06
8.27023e-06
7.22938e-06
6.30246e-06
5.86248e-06
5.81679e-06
5.95549e-06
6.10691e-06
6.18946e-06
6.20043e-06
6.17393e-06
6.14312e-06
6.12466e-06
6.12007e-06
6.1236e-06
6.12896e-06
6.13253e-06
6.13359e-06
6.13308e-06
6.13221e-06
6.13175e-06
6.13194e-06
6.13264e-06
6.13357e-06
6.13456e-06
6.13552e-06
6.13644e-06
6.13738e-06
6.13837e-06
6.13942e-06
6.14051e-06
6.14172e-06