/*--------------------------------*- C++ -*----------------------------------*\
| =========                 |                                                 |
| \\      /  F ield         | OpenFOAM: The Open Source CFD Toolbox           |
|  \\    /   O peration     | Version:  2312                                  |
|   \\  /    A nd           | Website:  www.openfoam.com                      |
|    \\/     M anipulation  |                                                 |
\*---------------------------------------------------------------------------*/
FoamFile
{
    version     2.0;
    format      ascii;
    arch        "LSB;label=32;scalar=64";
    class       volSymmTensorField;
    location    "250";
    object      turbulenceProperties:R;
}
// * * * * * * * * * * * * * * * * * * * * * * * * * * * * * * * * * * * * * //

dimensions      [0 2 -2 0 0 0 0];

internalField   nonuniform List<symmTensor> 
11040
(
(0.999207 0.199269 6.01822e-21 0.779058 4.53961e-20 0.918174)
(2.3867 0.26834 -6.97627e-20 1.24679 6.66554e-19 1.93224)
(3.94674 0.0364963 7.89564e-19 1.65656 8.32446e-19 2.95529)
(5.32794 -0.386951 1.77688e-19 2.14416 -1.03713e-18 3.85004)
(6.74608 -0.91474 -4.8561e-20 2.85674 -8.58822e-20 4.84144)
(11.6005 -2.22468 -3.7688e-18 5.40215 -1.3468e-17 8.44743)
(9.75452 -2.56697 -4.76681e-18 5.38656 -8.46579e-17 7.37327)
(8.27109 -2.78333 5.93462e-17 5.79684 -1.34419e-16 6.52526)
(7.91355 -2.88266 1.94641e-17 6.19296 9.53861e-17 6.40878)
(8.77549 -3.35066 -1.46544e-17 7.28015 5.71648e-17 7.31835)
(12.069 -4.72849 -2.31137e-17 10.0674 6.66281e-17 10.3967)
(14.4202 -5.71418 -2.28326e-17 11.9578 3.83358e-18 12.7186)
(16.042 -6.41915 -3.73714e-18 13.3375 -1.65158e-17 14.399)
(17.4866 -7.08939 8.39489e-19 14.7405 -9.56227e-18 15.9313)
(18.8079 -7.75081 2.37254e-18 16.2099 -1.13575e-18 17.3838)
(19.8051 -8.31163 1.7531e-20 17.5422 -2.48153e-18 18.5803)
(20.3767 -8.71401 2.08857e-18 18.604 -1.96608e-18 19.4168)
(20.5153 -8.93817 -1.4604e-20 19.3389 3.20816e-19 19.8662)
(20.269 -8.99151 -9.0832e-19 19.7476 -3.63151e-19 19.9554)
(19.7073 -8.89252 -1.74724e-19 19.851 -3.90527e-19 19.7302)
(18.8209 -8.62921 4.6584e-19 19.6039 -7.79091e-19 19.1656)
(17.708 -8.22899 1.62556e-18 19.0131 2.35623e-18 18.3143)
(16.5954 -7.79003 2.51253e-19 18.2564 1.49844e-18 17.3793)
(15.5569 -7.36248 1.08828e-19 17.4703 9.53808e-18 16.4718)
(14.5555 -6.93742 -3.32618e-18 16.6547 -3.08216e-18 15.5686)
(13.5587 -6.50222 2.07522e-18 15.7844 -2.9317e-18 14.6382)
(12.5572 -6.05473 -4.42582e-19 14.8556 -4.83468e-18 13.6756)
(11.5537 -5.5977 4.85226e-19 13.8753 9.78808e-20 12.6858)
(10.5461 -5.13134 1.78955e-19 12.8446 -1.65988e-18 11.6685)
(9.53132 -4.65513 2.59835e-18 11.7626 1.75643e-18 10.6218)
(8.50905 -4.16974 3.05073e-19 10.6315 4.63729e-18 9.54662)
(7.48202 -3.67725 1.00429e-19 9.45699 -2.1301e-18 8.44732)
(6.45658 -3.18141 3.42577e-18 8.24892 6.42905e-18 7.33212)
(5.43059 -2.6818 -5.74439e-19 7.00665 -5.86958e-20 6.20009)
(4.34083 -2.14776 2.36586e-18 5.6498 2.44147e-18 4.98069)
(2.95607 -1.46463 -7.68467e-20 3.87627 1.03046e-18 3.40604)
(2.06091 -1.02201 -1.71861e-19 2.72033 -9.15206e-21 2.38239)
(1.52871 -0.758005 -2.50194e-23 2.02531 -7.54562e-25 1.768)
(1.03612 -0.513856 -4.91757e-22 1.37518 -7.85747e-23 1.19996)
(0.766477 -0.37204 -2.75938e-20 0.959122 -1.47192e-22 0.842897)
(0.318967 -0.00743494 -2.90471e-21 0.819111 -1.97596e-19 0.541139)
(0.13523 -0.0122403 5.26109e-22 0.119763 9.79936e-23 0.123342)
(0.158579 -0.0170746 3.82817e-20 0.156048 -4.38317e-20 0.147396)
(0.277795 -0.0462963 -2.68014e-19 0.246226 -4.6083e-19 0.228116)
(0.829637 -0.129749 -6.90266e-19 0.456754 -1.40045e-19 0.576087)
(2.17834 -0.309056 1.10604e-19 0.976569 -3.46703e-19 1.54551)
(5.97532 -1.01226 -3.28183e-18 2.66049 -1.89045e-18 4.36659)
(11.4245 -2.31862 -1.44241e-17 5.38522 3.11389e-17 8.63185)
(17.0469 -3.83013 -5.09552e-17 8.38243 1.68992e-16 13.3847)
(23.8097 -6.09744 2.18997e-17 12.5979 -1.04459e-16 19.2611)
(31.2575 -9.09777 2.72305e-17 18.1001 -1.12524e-16 26.034)
(33.7883 -10.9336 3.42776e-17 21.4473 -1.60365e-16 28.893)
(31.4833 -11.0029 2.93018e-17 21.6299 -2.33016e-18 27.5067)
(27.2459 -10.0766 -4.24239e-18 20.0026 4.58926e-17 24.2629)
(23.007 -8.88466 -2.92184e-18 17.8642 3.48418e-17 20.8538)
(19.4553 -7.77291 -7.52912e-18 15.8472 1.27566e-18 17.9259)
(16.6049 -6.82108 -2.37708e-18 14.1046 4.35813e-18 15.5381)
(14.3059 -6.01754 -1.95288e-18 12.6205 3.57846e-19 13.5911)
(12.444 -5.34323 8.44741e-19 11.3636 4.10425e-18 12.0015)
(10.9368 -4.7813 -9.26027e-19 10.306 1.49839e-18 10.707)
(9.69723 -4.30591 3.43516e-19 9.39897 5.75728e-19 9.63276)
(8.68092 -3.90761 -2.14441e-18 8.63091 1.92342e-18 8.74657)
(7.88158 -3.58824 -2.46885e-18 8.01031 -7.22153e-18 8.04226)
(7.21026 -3.31288 4.17841e-18 7.4667 -2.97236e-19 7.4349)
(6.60535 -3.06133 5.05688e-18 6.97026 -1.47052e-17 6.87853)
(6.08197 -2.84067 3.79274e-18 6.53354 7.27649e-18 6.39005)
(5.65143 -2.65652 -4.95247e-18 6.16532 2.6593e-18 5.98309)
(5.2975 -2.5035 1.5084e-18 5.85647 8.92238e-18 5.64614)
(4.99955 -2.37338 -5.09304e-19 5.59106 -9.18542e-20 5.36026)
(4.74325 -2.26021 -4.59845e-18 5.35692 1.9474e-18 5.11176)
(4.51974 -2.16035 -4.16986e-18 5.14656 -8.51364e-18 4.89221)
(4.32286 -2.07138 -5.38034e-18 4.95557 -8.42826e-18 4.69618)
(4.14784 -1.99145 -7.479e-18 4.7807 -1.11512e-19 4.51944)
(3.98905 -1.91817 -7.1463e-18 4.61751 -1.80504e-17 4.35664)
(3.83787 -1.84769 9.54383e-19 4.45825 2.2132e-18 4.1989)
(3.67249 -1.76995 -2.94756e-19 4.2818 -8.29626e-18 4.02287)
(3.44173 -1.65972 -5.64506e-18 4.02296 -4.80851e-18 3.7716)
(3.21555 -1.552 3.3533e-19 3.7671 3.15567e-20 3.5292)
(3.00628 -1.45054 9.47626e-20 3.51986 5.22456e-19 3.29718)
(2.82534 -1.37173 8.25866e-23 3.35902 4.28881e-22 3.13671)
(2.64228 -1.26745 1.02258e-19 3.08512 -8.37555e-20 2.85072)
(4.13445 -2.04726 -1.5771e-18 5.14247 1.97373e-18 5.06849)
(0.0766534 -0.00850273 -4.7923e-21 0.0682285 -1.37721e-20 0.0727037)
(0.0499488 -0.00573345 -4.64391e-20 0.0577327 -4.83536e-20 0.0560698)
(0.0411672 -0.00101805 2.17827e-20 0.0519328 7.27067e-20 0.0491005)
(0.0302797 0.000259385 4.69049e-20 0.0405754 4.33382e-20 0.0378045)
(0.0212973 -0.00418191 -1.6576e-19 0.0180115 -9.54053e-20 0.0210434)
(0.25416 -0.0455963 -1.62882e-19 0.14296 4.11196e-19 0.196461)
(1.04297 -0.225787 6.4681e-19 0.528403 1.2765e-18 0.78183)
(2.55303 -0.62344 1.00099e-18 1.33437 -2.3136e-18 1.95315)
(4.74201 -1.29308 -1.93594e-18 2.64521 3.38944e-18 3.72452)
(7.37613 -2.20957 4.66039e-19 4.41842 -1.18511e-18 5.93814)
(10.3247 -3.33748 -3.13937e-18 6.62293 6.90553e-18 8.49752)
(13.4417 -4.61977 -1.04602e-17 9.17634 -1.88548e-17 11.3049)
(16.4311 -5.93286 4.31841e-18 11.8476 -9.19314e-18 14.1228)
(18.8869 -7.1027 1.35496e-18 14.2938 -5.14765e-18 16.5846)
(20.4146 -7.95024 4.25306e-18 16.1543 6.21115e-18 18.3026)
(20.7886 -8.35155 4.41739e-18 17.1655 1.19529e-18 19.0185)
(20.0666 -8.29107 1.39134e-18 17.2679 8.95926e-19 18.7223)
(18.5581 -7.8631 6.16383e-18 16.6186 4.11286e-19 17.6424)
(16.6926 -7.23089 1.30141e-18 15.5237 -5.8526e-19 16.1476)
(14.8268 -6.54584 -1.05475e-18 14.2805 -1.54517e-18 14.5698)
(13.1304 -5.89222 4.31232e-18 13.0615 2.67671e-18 13.0903)
(11.7259 -5.3329 1.84543e-18 11.999 2.97768e-18 11.8398)
(10.6398 -4.89 -3.80651e-18 11.145 -4.93053e-18 10.8594)
(9.75951 -4.52524 -7.77334e-18 10.4308 -1.21504e-17 10.0617)
(9.01843 -4.21252 -7.92406e-18 9.80509 -8.45332e-18 9.38282)
(8.392 -3.94325 8.96423e-18 9.25465 1.06562e-18 8.79903)
(7.85291 -3.70774 -7.05151e-19 8.76335 2.19904e-19 8.28801)
(7.38045 -3.49826 3.20646e-19 8.3176 -2.55576e-18 7.83226)
(6.9614 -3.30985 6.26494e-18 7.90856 7.68272e-18 7.42064)
(6.58853 -3.13998 -5.41352e-18 7.53235 9.02764e-18 7.04762)
(6.25703 -2.98714 1.27371e-17 7.18709 2.34659e-18 6.71018)
(5.96345 -2.85025 -1.2353e-18 6.8717 1.40289e-17 6.40633)
(5.70488 -2.72836 1.57491e-18 6.58533 6.56161e-18 6.13429)
(5.47562 -2.61912 1.02756e-17 6.32359 -7.33854e-19 5.88909)
(5.26989 -2.52038 -8.67329e-18 6.08393 4.61696e-19 5.66655)
(5.08086 -2.4289 -8.55156e-19 5.85834 3.537e-18 5.45967)
(4.90456 -2.34506 3.02145e-19 5.6549 1.6763e-20 5.27319)
(4.72578 -2.25691 6.95526e-18 5.43382 -6.55579e-19 5.07056)
(4.52616 -2.17529 -2.3105e-19 5.28041 -7.23403e-21 4.91186)
(4.17779 -1.97842 5.18667e-18 4.77347 -6.3226e-19 4.39711)
(4.60197 -2.22943 2.11897e-18 5.44375 -1.99589e-18 5.08543)
(0.054123 -0.00581722 3.87587e-21 0.047984 9.19519e-21 0.051164)
(0.0456266 -0.00591153 6.57159e-21 0.0483676 2.7273e-20 0.0468544)
(0.0367085 -0.00349986 -2.23366e-20 0.0444969 -3.32917e-20 0.040449)
(0.0309804 -0.00112844 -2.2371e-20 0.0392542 -1.45978e-20 0.0349056)
(0.0264597 1.25169e-05 2.9145e-20 0.0333871 2.33178e-20 0.0296733)
(0.0170759 0.000232179 1.99133e-20 0.0207093 1.37784e-20 0.0187062)
(0.00945019 3.86934e-05 -3.55682e-21 0.0115323 -1.22307e-20 0.0102567)
(0.0107074 -0.00165008 2.89855e-21 0.0110084 -4.46146e-21 0.0100136)
(0.0616455 -0.0132887 -3.25088e-20 0.0457623 4.34294e-20 0.0509898)
(0.171188 -0.0453458 -4.34793e-19 0.113033 3.43011e-20 0.137704)
(0.3323 -0.099596 6.98859e-20 0.215246 2.36358e-19 0.269816)
(0.550383 -0.179287 5.5045e-19 0.366345 1.09769e-18 0.45638)
(0.895273 -0.310392 -1.52673e-20 0.622022 -1.95754e-20 0.758732)
(1.50356 -0.546025 1.84673e-18 1.09249 -1.89957e-19 1.29986)
(2.5143 -0.946235 -2.72805e-19 1.9042 -8.07407e-19 2.21198)
(4.00044 -1.55075 -1.62126e-18 3.14712 -2.32503e-18 3.57596)
(5.88976 -2.34409 -3.68161e-18 4.80396 -1.20043e-19 5.34765)
(7.94265 -3.23978 8.73406e-19 6.71318 -1.81133e-18 7.32828)
(9.82117 -4.10183 -1.91817e-18 8.60587 -1.49253e-18 9.2171)
(11.2192 -4.79319 -8.46578e-19 10.1974 6.88761e-19 10.7192)
(11.9755 -5.22759 -1.44257e-18 11.2938 -2.21855e-18 11.6557)
(12.1188 -5.39092 -3.6882e-18 11.8317 -2.32823e-19 12.0022)
(11.8347 -5.34422 -1.17234e-19 11.9014 1.96785e-18 11.8932)
(11.3209 -5.17417 -8.43814e-18 11.6746 1.95493e-18 11.5195)
(10.7222 -4.94765 -2.83822e-18 11.2929 1.00599e-17 11.0242)
(10.1271 -4.70794 -1.79745e-17 10.8532 -1.82468e-18 10.4992)
(9.5759 -4.47776 2.07557e-18 10.4103 1.9119e-18 9.99479)
(9.08118 -4.26611 -8.24855e-18 9.98886 2.63443e-18 9.53123)
(8.64445 -4.07582 9.71153e-18 9.59882 -5.71288e-18 9.11454)
(8.26206 -3.90651 1.44287e-17 9.24203 -7.55084e-19 8.74342)
(7.92741 -3.75599 -6.92129e-18 8.91554 -5.84279e-18 8.41276)
(7.63316 -3.62148 2.87374e-17 8.6147 -4.32476e-18 8.11608)
(7.37282 -3.50039 -1.29869e-18 8.33522 -1.35211e-19 7.84742)
(7.13875 -3.38961 1.53769e-18 8.07182 -4.19427e-18 7.59989)
(6.92584 -3.28745 6.95723e-19 7.82343 3.28966e-18 7.37038)
(6.72913 -3.19168 -2.60732e-18 7.58607 1.4294e-18 7.1536)
(6.54461 -3.10331 1.86159e-19 7.37058 -4.26881e-20 6.95598)
(6.36142 -3.0113 2.10745e-18 7.13766 -1.79136e-18 6.74238)
(6.1578 -2.92949 -7.36948e-20 6.98225 7.38611e-21 6.58246)
(5.81454 -2.72418 2.2395e-18 6.42828 3.53868e-20 6.04108)
(6.05308 -2.84529 1.8657e-20 6.56891 2.10966e-19 6.44548)
(0.0376524 -0.00394055 3.2232e-22 0.0330843 4.62268e-24 0.0353718)
(0.0336776 -0.00437077 7.87368e-21 0.034637 6.68274e-21 0.0340981)
(0.0289506 -0.0032129 3.59893e-20 0.0338974 4.37597e-20 0.0313673)
(0.0240909 -0.00154193 4.17544e-20 0.0303819 2.97549e-20 0.0271913)
(0.0206669 -0.000191126 -5.28202e-20 0.0266138 -4.03132e-20 0.0236342)
(0.0182709 0.000575585 2.56387e-20 0.022875 4.57856e-21 0.0205997)
(0.0141929 0.000644136 -1.58787e-21 0.0166482 1.21548e-21 0.0154406)
(0.00822367 0.000303419 6.3612e-22 0.00895195 -5.62294e-22 0.00859244)
(0.00338324 7.07302e-05 1.0104e-21 0.00349417 5.08738e-22 0.00343871)
(0.000948476 7.73679e-06 2.01846e-22 0.000955971 7.64732e-23 0.000952107)
(0.000109569 1.42402e-07 1.84318e-24 0.00010964 -1.30309e-25 0.0001096)
(0.0119867 0.00215902 -4.74139e-22 0.0122983 -1.78145e-20 0.0120194)
(0.00226589 0.0001159 -3.22584e-22 0.00224716 7.89135e-23 0.00224566)
(0.00206977 0.000146855 -6.83182e-21 0.0019722 -5.01586e-21 0.00199718)
(0.000310286 1.54487e-06 1.23155e-22 0.000296583 2.70575e-22 0.000301497)
(0.00498742 -0.000564171 -2.15797e-20 0.0041679 3.38601e-21 0.00450814)
(0.0464569 -0.0149511 1.2181e-19 0.0345121 1.22312e-19 0.0398744)
(0.177306 -0.0674363 -1.99073e-20 0.138463 -8.34955e-20 0.15672)
(0.491354 -0.19622 -3.4471e-21 0.404061 1.29083e-19 0.446236)
(1.10087 -0.45295 2.8399e-20 0.943791 1.26795e-19 1.02067)
(2.09599 -0.883499 7.20711e-19 1.86527 3.28727e-19 1.97899)
(3.37824 -1.45382 1.99797e-18 3.11142 6.91628e-19 3.24332)
(4.70016 -2.05745 -4.81785e-19 4.46134 -1.51638e-19 4.57802)
(5.89199 -2.61701 -4.57022e-18 5.74545 1.85835e-18 5.81619)
(6.85822 -3.08468 1.30778e-17 6.85137 -1.39019e-18 6.85496)
(7.57068 -3.44181 8.12282e-18 7.7278 5.61236e-18 7.65293)
(8.04723 -3.69197 5.95547e-18 8.37252 -1.53913e-18 8.21736)
(8.32721 -3.84965 7.39922e-18 8.80867 2.08008e-18 8.57869)
(8.4586 -3.93469 -8.64355e-18 9.07389 -2.64526e-18 8.77896)
(8.48707 -3.96703 -1.5454e-17 9.20844 -2.45966e-18 8.86062)
(8.44993 -3.96378 4.00843e-19 9.24857 1.95758e-18 8.86061)
(8.37484 -3.93816 -1.51411e-17 9.22368 -6.29218e-18 8.80796)
(8.28102 -3.89967 1.2252e-18 9.156 -4.37303e-20 8.72392)
(8.17919 -3.85416 2.68053e-18 9.0606 -1.56892e-18 8.62202)
(8.07565 -3.80547 3.61753e-19 8.94875 1.05462e-19 8.51181)
(7.97147 -3.75445 1.18167e-17 8.82399 -1.00824e-18 8.39503)
(7.86553 -3.70348 -6.64185e-19 8.69926 -7.69515e-19 8.28098)
(7.75073 -3.64319 -1.01679e-17 8.5416 9.88135e-19 8.13828)
(7.60807 -3.58875 1.7732e-19 8.43827 1.50149e-20 8.03838)
(7.4069 -3.44337 2.67e-18 8.01379 -9.18745e-20 7.63025)
(7.41261 -3.47178 9.78051e-18 7.97169 -8.82465e-19 7.86404)
(0.0256334 -0.00265916 1.49632e-23 0.0224765 -1.96892e-22 0.0240866)
(0.0242552 -0.00311477 -9.79889e-23 0.0242298 -1.40296e-21 0.0242229)
(0.0220581 -0.00267021 -9.29113e-21 0.0248662 -2.0033e-20 0.0234822)
(0.0193303 -0.00167123 -1.48531e-20 0.0237542 -1.95191e-20 0.0215962)
(0.0168881 -0.00064856 3.49008e-20 0.0216829 3.73193e-20 0.0193303)
(0.0152764 0.000154936 -3.45226e-20 0.0197742 -2.62586e-20 0.0175509)
(0.0143071 0.000730595 1.75125e-20 0.0181254 7.83275e-21 0.0162403)
(0.0131553 0.00101136 -2.38036e-20 0.0159073 -7.85774e-21 0.0145602)
(0.0113857 0.000970151 -1.51653e-22 0.0130134 -1.42842e-21 0.0122213)
(0.00915276 0.000739564 -1.06018e-20 0.00994445 -1.03543e-20 0.00955813)
(0.00691665 0.000486649 -4.24076e-21 0.00723891 -1.58297e-21 0.00708005)
(0.00506216 0.000298483 5.04953e-22 0.00517577 -1.52592e-22 0.00511889)
(0.00409167 0.00022058 9.1963e-22 0.00413587 5.45163e-22 0.00411349)
(0.00285494 0.000118736 -1.24726e-21 0.00286634 3.53873e-22 0.00286076)
(0.00200143 6.28559e-05 1.53078e-21 0.00200341 8.95798e-25 0.00200261)
(0.000233482 9.13426e-07 3.56343e-24 0.000233461 3.32391e-24 0.000233473)
(0.00493526 0.000422463 2.10269e-21 0.00489953 -1.62962e-21 0.00491638)
(0.000486557 4.73171e-06 -3.02622e-23 0.000485761 5.18533e-25 0.00048612)
(0.000316766 2.4127e-06 1.5226e-24 0.000316035 -5.73736e-24 0.000316364)
(0.00131347 5.57647e-05 1.47276e-23 0.00128048 6.64633e-23 0.0012955)
(0.0104522 0.00210116 1.18057e-20 0.0060075 -5.31691e-21 0.00807523)
(0.0356757 -0.00918929 -8.60064e-20 0.01958 -7.33377e-20 0.0272638)
(0.140368 -0.053126 -7.63322e-22 0.107514 -5.96187e-20 0.123425)
(0.362198 -0.149051 -3.69589e-19 0.310668 3.05541e-19 0.33585)
(0.727849 -0.310796 -2.5896e-18 0.661789 -9.93735e-19 0.69417)
(1.24552 -0.543442 7.04637e-19 1.17561 -5.66523e-19 1.20941)
(1.90018 -0.841436 -2.27795e-18 1.84321 -6.15117e-19 1.86948)
(2.65764 -1.19005 -5.01557e-20 2.63413 -1.32132e-18 2.64234)
(3.47371 -1.56937 -8.93855e-19 3.50477 1.03447e-18 3.48459)
(4.3023 -1.958 5.09858e-18 4.40644 2.26838e-18 4.3493)
(5.10208 -2.33622 -8.86729e-19 5.29274 4.21022e-19 5.193)
(5.841 -2.68823 1.15748e-18 6.12509 2.61062e-18 5.98044)
(6.49748 -3.00276 -4.84464e-19 6.87437 -5.76581e-19 6.68597)
(7.06091 -3.27384 -1.28031e-17 7.52378 1.7399e-19 7.29537)
(7.52754 -3.49878 1.60255e-18 8.06447 -7.99164e-19 7.80182)
(7.89683 -3.67628 -3.81493e-19 8.49084 -5.82158e-19 8.20074)
(8.17287 -3.80967 -1.54149e-17 8.81281 1.70962e-18 8.50163)
(8.36427 -3.89721 6.20089e-19 9.01685 8.37538e-19 8.69123)
(8.45951 -3.95519 2.44893e-19 9.17827 1.46021e-19 8.83912)
(8.54264 -3.94116 -1.0047e-17 9.06519 9.24894e-19 8.72897)
(8.48012 -3.98344 -8.85521e-18 9.20047 1.35252e-18 9.00724)
(0.0178026 -0.0018344 -1.94453e-21 0.0155795 -1.2263e-21 0.016712)
(0.0173394 -0.00219255 1.06434e-20 0.0169393 7.93315e-21 0.0171256)
(0.0167434 -0.00212198 -1.13057e-20 0.018217 -6.46181e-21 0.0174707)
(0.0157029 -0.00163812 -2.63773e-21 0.0186665 3.71023e-21 0.0171739)
(0.0143827 -0.000948747 3.32397e-21 0.0181017 -2.47346e-21 0.0162205)
(0.0130442 -0.000281651 1.03095e-20 0.0168477 9.92195e-21 0.0149184)
(0.0119177 0.000269084 -9.6105e-21 0.0154047 -1.21841e-20 0.0136394)
(0.0110472 0.000693578 2.82715e-20 0.0139862 1.70266e-20 0.0125067)
(0.0102737 0.000973076 1.05315e-20 0.0125056 1.9363e-21 0.0113895)
(0.00944219 0.00109133 -1.51072e-20 0.0109253 2.83648e-21 0.0101885)
(0.00849353 0.00106987 1.2684e-20 0.00931824 2.59894e-21 0.00891228)
(0.00743917 0.000953818 -1.14995e-20 0.00777937 -3.05922e-21 0.007615)
(0.00631035 0.000783869 1.0616e-20 0.00636081 6.20506e-21 0.00633917)
(0.0054866 0.000665067 -2.39117e-21 0.00540094 -2.02549e-21 0.00544592)
(0.00486176 0.000571667 -1.63327e-20 0.00471776 -9.16957e-21 0.00479149)
(0.00424357 0.000464496 4.95267e-22 0.00408649 2.89003e-21 0.00416627)
(0.00362522 0.000352873 -5.07121e-21 0.00348122 -5.5993e-22 0.00355382)
(0.00296047 0.000240507 1.71635e-21 0.00284794 4.6259e-22 0.00290437)
(0.0021042 0.000123153 -1.68927e-21 0.00204001 -3.35043e-22 0.0020721)
(0.000474694 6.44633e-06 2.74001e-23 0.000471007 -1.27442e-23 0.000472842)
(0.00235119 0.000150253 1.60434e-22 0.00225604 5.12232e-22 0.00230315)
(0.00985441 0.00209102 -7.53323e-21 0.00834419 -1.21317e-21 0.00908998)
(0.00481443 0.000630681 -4.27461e-21 0.00428184 -7.4673e-22 0.00454371)
(0.00355361 0.000399536 5.73193e-23 0.00313596 4.06408e-22 0.00334122)
(0.00344369 0.000413031 -4.76624e-21 0.0028211 2.8781e-21 0.00312885)
(0.0120815 0.00175449 5.77376e-20 0.00574498 3.62519e-22 0.00889913)
(0.0251162 -0.00336615 -8.12807e-20 0.0106756 2.08209e-20 0.0179098)
(0.0689907 -0.0224151 -3.60715e-19 0.044582 1.65355e-20 0.0568777)
(0.17013 -0.0662789 6.833e-20 0.134751 1.14425e-19 0.152623)
(0.355823 -0.148236 1.23165e-18 0.310597 -2.00766e-19 0.333361)
(0.655277 -0.282151 1.26518e-18 0.604066 -3.50849e-19 0.629462)
(1.09425 -0.480255 2.75216e-18 1.0439 -3.29107e-19 1.06799)
(1.68695 -0.749438 -3.21089e-18 1.64682 2.8767e-19 1.66434)
(2.43463 -1.0907 -7.20503e-18 2.41609 1.43788e-18 2.42096)
(3.31848 -1.49586 -8.33961e-18 3.33397 6.08236e-19 3.32021)
(4.29535 -1.94523 9.74643e-18 4.35598 -6.21974e-19 4.31852)
(5.30269 -2.41132 9.99915e-18 5.42116 -3.55142e-19 5.35654)
(6.28575 -2.86463 1.18662e-17 6.45692 -8.2801e-19 6.36345)
(7.15383 -3.28105 1.25233e-17 7.43303 -9.62048e-19 7.30682)
(7.96329 -3.61114 -3.53386e-20 8.13032 -5.03617e-20 7.99007)
(8.46272 -3.95825 -1.30243e-17 9.0961 6.71249e-19 8.93385)
(0.0124781 -0.00128559 -7.62905e-22 0.0109193 -6.11039e-22 0.0117166)
(0.0123176 -0.00153578 -6.20776e-21 0.011858 -4.76603e-21 0.0120826)
(0.0122515 -0.00158058 6.98036e-21 0.0129609 6.86129e-21 0.0126044)
(0.0119142 -0.00137551 8.89744e-21 0.0137298 6.83278e-21 0.0128252)
(0.0113082 -0.000967214 1.68392e-20 0.0139098 8.95978e-21 0.0126125)
(0.0106018 -0.000480906 -1.8939e-20 0.0135547 -1.60564e-20 0.0120788)
(0.00991329 -1.96164e-05 -3.02217e-20 0.0128387 -1.29403e-20 0.0113754)
(0.00926898 0.000366135 -1.70378e-20 0.0118945 -1.09191e-20 0.0105834)
(0.00862844 0.000651282 3.26125e-21 0.0107702 1.70793e-21 0.00970462)
(0.00794952 0.000820521 1.57705e-20 0.00951627 1.11806e-20 0.00874003)
(0.00720765 0.000875098 -3.08523e-20 0.00820543 -1.24517e-20 0.00771279)
(0.00640213 0.000836396 4.84793e-21 0.00691918 2.96399e-21 0.00666446)
(0.00558241 0.000743327 2.6862e-20 0.00575398 2.39326e-21 0.00566964)
(0.00484253 0.00063903 -2.08768e-20 0.00479968 -5.01331e-21 0.00482151)
(0.00423642 0.000546308 -5.32269e-21 0.00407044 3.73467e-21 0.00415444)
(0.00380093 0.000478164 2.55207e-20 0.00355862 3.74671e-21 0.00368183)
(0.00346321 0.000420403 5.41444e-21 0.00316992 -3.06354e-22 0.00331916)
(0.00314277 0.000358906 -4.27837e-21 0.00282452 6.34123e-22 0.00298623)
(0.00292721 0.000315121 -3.37206e-21 0.00258823 7.33127e-22 0.00276032)
(0.00256236 0.000243242 -5.0964e-21 0.00225633 -3.98191e-22 0.0024115)
(0.00209116 0.000163123 6.44371e-21 0.00185976 3.12187e-22 0.00197695)
(0.00152196 8.79898e-05 -1.20625e-21 0.00138666 -1.31833e-23 0.00145509)
(0.00113352 4.99128e-05 -4.63128e-22 0.00105378 7.79881e-23 0.00109391)
(0.000123356 6.43826e-07 7.26111e-26 0.000122326 1.56284e-25 0.000122842)
(0.000386067 6.24185e-06 -5.90873e-23 0.000376204 -8.06817e-24 0.00038113)
(0.00151502 8.891e-05 8.80905e-22 0.00137492 8.81514e-24 0.00144479)
(3.04145e-05 4.12065e-08 -4.42897e-25 3.0348e-05 3.51497e-26 3.03811e-05)
(0.01179 0.00265022 5.2725e-21 0.00719926 4.24291e-21 0.00948664)
(0.0191562 0.00442097 1.16082e-19 0.010242 -1.27431e-20 0.014698)
(0.000615952 1.67118e-05 5.83941e-23 0.000569218 -1.08646e-22 0.000592713)
(0.00694135 0.00048788 -1.28671e-19 0.00337062 7.40297e-21 0.00517937)
(0.0185714 -0.00221878 -1.06598e-19 0.00778103 -1.26935e-20 0.0132925)
(0.0480024 -0.0141801 2.67976e-19 0.0284999 1.02506e-20 0.0385316)
(0.123042 -0.0461337 1.11777e-18 0.0926331 -2.92814e-20 0.108317)
(0.282288 -0.115534 1.29217e-19 0.239574 1.23667e-19 0.261505)
(0.573247 -0.244045 1.57284e-19 0.518196 -9.83799e-20 0.545883)
(1.04345 -0.453665 -1.70231e-20 0.978401 -1.07299e-19 1.01038)
(1.73895 -0.763142 3.57101e-19 1.66025 -2.06562e-19 1.69527)
(2.65728 -1.18115 -5.67083e-18 2.59307 3.19744e-19 2.62688)
(3.78535 -1.65915 1.28647e-19 3.62405 -6.65926e-21 3.66745)
(5.10323 -2.33835 7.71393e-18 5.24506 -6.01131e-19 5.25788)
(0.00883808 -0.000914412 5.52757e-22 0.00774435 3.70438e-22 0.00830427)
(0.00877057 -0.0010822 -2.98459e-23 0.00836807 3.05379e-22 0.00856621)
(0.00885329 -0.00114685 1.14453e-20 0.00917756 6.42029e-21 0.0090145)
(0.00885517 -0.00107982 6.06386e-22 0.00993438 -9.63621e-22 0.00939552)
(0.0086953 -0.000870743 1.38655e-21 0.0104291 -1.48425e-21 0.00956154)
(0.00841006 -0.000562785 4.3115e-22 0.0105742 3.58595e-21 0.00948792)
(0.00805904 -0.000219242 1.2883e-20 0.0103884 1.01481e-20 0.00921687)
(0.00767623 0.000107674 -1.12135e-21 0.009928 -9.41868e-22 0.00879549)
(0.00726024 0.000380328 3.86517e-22 0.00923968 5.51948e-21 0.00824574)
(0.00679046 0.000571851 3.11494e-20 0.00836888 8.53307e-21 0.00757789)
(0.00625434 0.000671895 2.66206e-21 0.00738335 3.27766e-21 0.00681804)
(0.00565709 0.000689177 -2.27948e-20 0.00636405 -5.75401e-21 0.0060097)
(0.00503033 0.00064753 -3.59528e-21 0.00539599 -6.4447e-21 0.00521205)
(0.00443107 0.000577744 5.85697e-21 0.00455438 6.10129e-21 0.00449149)
(0.00390839 0.000504092 -7.03573e-21 0.00387369 -3.2148e-21 0.00389012)
(0.00348485 0.000439013 -6.09982e-21 0.00334805 -4.18348e-21 0.00341598)
(0.0031505 0.000384023 -9.75983e-21 0.00294321 -1.36577e-21 0.00304654)
(0.00289006 0.000337902 1.41158e-20 0.00262893 2.59488e-21 0.00275906)
(0.0026755 0.000295807 -3.5974e-21 0.0023716 -2.93212e-22 0.00252302)
(0.00251874 0.000260592 1.27443e-22 0.00217433 1.34116e-21 0.00234599)
(0.00239175 0.000226848 -4.79535e-22 0.00201154 -2.95212e-21 0.00220121)
(0.00219085 0.000180746 1.08239e-21 0.00181164 1.4943e-21 0.00200112)
(0.00194791 0.000135063 -9.63096e-22 0.00160088 2.5018e-22 0.00177429)
(0.00174428 0.000102441 -1.95069e-22 0.00143193 -1.97198e-23 0.00158796)
(0.00146735 7.02018e-05 -3.79484e-21 0.00122283 2.35567e-22 0.00134512)
(0.00118991 4.55638e-05 2.0463e-21 0.00101525 -3.04743e-23 0.00110269)
(0.000858666 2.41611e-05 -8.56708e-23 0.000760359 -2.68961e-23 0.000809555)
(0.000517645 9.2052e-06 -2.14722e-22 0.000479305 2.84471e-23 0.000498465)
(2.6946e-05 2.74934e-08 -1.21002e-24 2.68323e-05 -1.53365e-25 2.6889e-05)
(9.56245e-05 3.5318e-07 -6.05056e-24 9.41997e-05 1.15352e-24 9.49095e-05)
(0.000460105 7.964e-06 5.1329e-22 0.000428636 3.83328e-23 0.000444298)
(0.00195771 0.000115884 -2.76923e-21 0.00149339 7.27115e-22 0.00172462)
(0.00616759 0.00065141 -2.64248e-22 0.00327477 -3.38399e-22 0.00472006)
(0.00272891 0.000151395 -1.11455e-20 0.00177795 -5.51472e-22 0.00225612)
(0.00280118 1.86242e-05 2.95838e-20 0.00169025 -1.59492e-21 0.00225493)
(0.00633868 -0.000825179 -1.32535e-20 0.00313393 -1.21058e-22 0.00478048)
(0.0241653 -0.00722431 3.66588e-20 0.014587 3.73631e-21 0.0196058)
(0.0754505 -0.0281873 -1.32468e-18 0.0566049 8.20082e-20 0.0662777)
(0.202831 -0.083728 -5.82265e-20 0.173836 1.36039e-20 0.190018)
(0.448995 -0.184632 -4.37534e-23 0.386794 8.03712e-22 0.412912)
(1.0089 -0.444502 3.43545e-18 0.95885 -1.36472e-19 1.00307)
(0.00629533 -0.00065685 -1.75263e-21 0.00553135 -9.60082e-22 0.00592308)
(0.00625599 -0.0007674 1.88844e-21 0.00594183 9.30373e-22 0.0060972)
(0.00634658 -0.000821296 1.97243e-22 0.00649112 -1.05038e-21 0.00641889)
(0.00643892 -0.000807512 -8.8227e-21 0.00707542 -5.3662e-21 0.00675858)
(0.00646085 -0.000709292 -5.63086e-22 0.00757316 1.40094e-21 0.00701833)
(0.00639947 -0.000532825 1.02194e-20 0.00789463 4.58991e-21 0.0071474)
(0.00627178 -0.000304967 -5.69629e-22 0.00800057 -3.67685e-21 0.00713513)
(0.0060989 -5.98058e-05 -1.96839e-20 0.00789202 -6.70275e-21 0.00699351)
(0.00588596 0.000170663 3.332e-20 0.00758196 1.25477e-20 0.00673234)
(0.00562522 0.000358903 -1.05349e-20 0.0070928 -1.04176e-20 0.00635858)
(0.0053074 0.000486461 1.31942e-20 0.00646499 3.93144e-21 0.00588672)
(0.004931 0.000548792 1.34685e-20 0.0057551 5.1884e-21 0.00534389)
(0.0045099 0.000554902 -2.11574e-20 0.00502876 -4.97723e-21 0.00477019)
(0.00407696 0.000523645 1.55647e-20 0.00435038 1.43328e-21 0.00421431)
(0.00366867 0.000474958 -2.03736e-20 0.0037624 -1.81792e-21 0.00371608)
(0.00331021 0.000422919 6.27331e-21 0.00327814 3.22336e-21 0.00329481)
(0.00300887 0.000374103 4.00528e-21 0.00288802 7.53632e-22 0.00294915)
(0.00275949 0.00033012 -4.04762e-22 0.00257345 6.40175e-22 0.0026671)
(0.0025531 0.000290551 4.13368e-24 0.00231682 -2.94041e-23 0.00243548)
(0.00238046 0.000254253 -4.10933e-22 0.00210359 -6.69062e-22 0.00224246)
(0.00223497 0.000220414 -5.87551e-21 0.00192431 3.75302e-22 0.00208)
(0.00211385 0.000189277 7.37718e-21 0.0017752 -1.88964e-22 0.0019449)
(0.00200126 0.00015958 -1.34859e-21 0.00164394 5.31315e-22 0.00182289)
(0.00190925 0.000133887 5.45867e-23 0.00153758 -9.30422e-23 0.00172351)
(0.00181613 0.000109426 1.16204e-22 0.0014407 6.03619e-22 0.0016285)
(0.00171483 8.5829e-05 1.5026e-21 0.00134796 4.38291e-23 0.00153155)
(0.00159802 6.33179e-05 -3.14045e-21 0.00125341 9.17067e-24 0.00142587)
(0.00149637 4.48468e-05 3.00252e-21 0.00117449 4.11927e-23 0.00133554)
(0.00132393 2.70106e-05 -2.46831e-21 0.00105507 2.74547e-22 0.00118956)
(0.00109475 1.32719e-05 1.85099e-21 0.000897919 -6.52253e-23 0.000996363)
(0.000820363 4.86527e-06 -5.47075e-22 0.000701268 -1.40455e-22 0.000760807)
(0.000558887 1.2852e-06 8.5114e-22 0.000499312 -3.46885e-23 0.000529066)
(0.000221603 1.05245e-07 9.13761e-23 0.000211237 -8.19362e-24 0.000216407)
(1.40059e-05 2.91195e-10 2.57196e-27 1.39607e-05 4.56336e-26 1.39832e-05)
(0.000156764 4.43767e-08 5.55331e-23 0.000150999 -9.29818e-24 0.000153866)
(0.000284753 1.61293e-07 -2.62012e-22 0.000264997 1.36896e-23 0.000274808)
(0.00147169 -4.77482e-06 1.14639e-20 0.0010457 -8.07345e-22 0.00125884)
(0.00527182 -0.000187202 7.44296e-20 0.00238411 -1.90801e-21 0.00382198)
(0.00359303 -0.000436091 -3.67118e-21 0.00193923 -3.06057e-22 0.00280218)
(0.00514892 -0.00103877 4.5313e-21 0.00294334 -1.62795e-22 0.00400355)
(0.0326676 -0.0115135 -3.08205e-19 0.0228424 1.39145e-20 0.0285353)
(0.00450111 -0.000475155 -4.76489e-24 0.00397042 6.54416e-24 0.00424293)
(0.0044718 -0.00054747 -1.13061e-20 0.00424166 -5.41413e-21 0.00435559)
(0.0045375 -0.000585973 -2.18147e-22 0.00460397 -6.13782e-22 0.0045708)
(0.00463157 -0.000588811 -1.31656e-20 0.00501608 -5.42412e-21 0.00482474)
(0.00470989 -0.00054512 2.04353e-20 0.00541895 1.02764e-20 0.0050653)
(0.00475149 -0.000450946 -1.4608e-20 0.00575457 -8.44786e-21 0.00525342)
(0.0047507 -0.000313134 -7.09299e-21 0.00597749 -1.56307e-21 0.0053637)
(0.0047099 -0.000147373 6.25858e-21 0.00606097 3.78205e-21 0.00538411)
(0.00463109 2.60372e-05 -2.52743e-20 0.00599425 -1.16213e-20 0.00531076)
(0.00451137 0.000185819 -1.47738e-20 0.00577924 -7.40742e-21 0.00514352)
(0.00434825 0.000314029 -7.28515e-21 0.00543626 -2.11997e-21 0.00489078)
(0.00413837 0.000399817 3.91703e-22 0.0049963 1.19297e-21 0.0045661)
(0.00388521 0.00044144 -1.7705e-21 0.00450162 2.12024e-21 0.00419248)
(0.00360454 0.000446276 -1.38897e-20 0.00400023 -4.10446e-21 0.00380162)
(0.00331846 0.000426564 2.00419e-20 0.00353207 5.70904e-21 0.00342469)
(0.00304761 0.000394225 1.45362e-21 0.00312049 -1.75631e-22 0.00308374)
(0.00280422 0.000357465 -8.64107e-21 0.00277129 -2.71897e-21 0.00278769)
(0.00259154 0.000320491 2.31136e-20 0.00247896 3.51819e-21 0.00253528)
(0.00240754 0.000284946 -5.01719e-21 0.00223412 -6.58485e-22 0.00232085)
(0.00224749 0.000251031 -3.70869e-21 0.00202671 -1.13879e-21 0.00213707)
(0.0021068 0.000218677 3.96471e-21 0.00184923 1.06182e-21 0.00197794)
(0.00198379 0.000188575 -5.28048e-21 0.00169887 -9.61924e-22 0.00184127)
(0.00187477 0.000161124 5.6925e-21 0.00157109 1.15486e-21 0.00172285)
(0.00177749 0.00013648 -1.10241e-21 0.00146186 -8.10386e-22 0.00161951)
(0.00169335 0.000114723 -9.45459e-22 0.0013704 -1.15603e-22 0.0015317)
(0.00162315 9.54155e-05 6.66433e-21 0.00129547 1.78619e-22 0.00145921)
(0.00156653 7.78918e-05 -4.34008e-22 0.00123514 1.3274e-22 0.00140079)
(0.00151837 6.12952e-05 -8.03005e-23 0.00118492 -6.73789e-22 0.00135161)
(0.00148721 4.58917e-05 -6.11048e-23 0.00114926 6.35798e-22 0.00131821)
(0.00144404 3.00009e-05 -2.76622e-21 0.0011101 -1.27319e-22 0.00127706)
(0.00138443 1.44597e-05 -2.5318e-21 0.00106473 5.43387e-23 0.00122459)
(0.00129497 5.15283e-07 -2.32683e-21 0.00100441 -1.62499e-23 0.0011497)
(0.00116195 -9.77492e-06 -1.79275e-21 0.000918484 1.89452e-23 0.00104022)