/*--------------------------------*- C++ -*----------------------------------*\
| =========                 |                                                 |
| \\      /  F ield         | OpenFOAM: The Open Source CFD Toolbox           |
|  \\    /   O peration     | Version:  2312                                  |
|   \\  /    A nd           | Website:  www.openfoam.com                      |
|    \\/     M anipulation  |                                                 |
\*---------------------------------------------------------------------------*/
FoamFile
{
    version     2.0;
    format      ascii;
    arch        "LSB;label=32;scalar=64";
    class       volVectorField;
    location    "250";
    object      U;
}
// * * * * * * * * * * * * * * * * * * * * * * * * * * * * * * * * * * * * * //

dimensions      [0 1 -1 0 0 0 0];

internalField   nonuniform List<vector> 
11040
(
(1.93644 35.1661 4.91729e-19)
(10.5343 38.2983 -3.77412e-17)
(15.0877 30.1481 -4.29196e-17)
(14.0572 18.1684 3.5925e-18)
(9.41455 7.91053 0)
(4.24486 1.64733 1.01141e-17)
(1.36917 -1.42064 3.08558e-16)
(2.31878 -3.15498 1.03506e-15)
(3.08851 -3.12838 -3.79208e-16)
(3.47661 -2.60584 -2.97054e-16)
(4.63816 -1.62891 -3.35992e-16)
(6.36134 -0.688339 7.12284e-19)
(8.25988 0.0125382 8.1308e-17)
(10.0263 0.431146 6.08676e-17)
(11.4799 0.601388 1.90193e-19)
(12.5841 0.593967 3.04586e-18)
(13.3741 0.472224 -3.66432e-20)
(13.9008 0.280275 0)
(14.2049 0.0456675 1.16505e-20)
(14.3204 -0.211218 2.40149e-18)
(14.2244 -0.475806 -1.51456e-19)
(13.9317 -0.709653 -1.5317e-17)
(13.5738 -0.883386 7.5486e-19)
(13.2182 -1.00962 -2.42775e-17)
(12.8439 -1.1102 2.2139e-17)
(12.4252 -1.19321 6.41198e-19)
(11.9563 -1.25869 1.91726e-17)
(11.4407 -1.3059 0)
(10.8778 -1.33474 0)
(10.2641 -1.34475 -1.47303e-17)
(9.59583 -1.33526 -2.81144e-17)
(8.86978 -1.30531 0)
(8.08542 -1.25388 -4.47411e-17)
(7.24222 -1.17907 0)
(6.34582 -1.0771 -1.67431e-17)
(5.42468 -0.956856 -1.34938e-17)
(4.4613 -0.824295 0)
(3.50597 -0.683781 0)
(2.42823 -0.500172 2.10782e-21)
(1.6928 -0.323388 -2.69093e-21)
(-1.33287 -0.828104 2.66674e-18)
(10.629 29.9948 -4.5654e-19)
(24.3493 30.8144 4.50172e-18)
(33.0358 28.6981 5.20368e-17)
(35.1705 25.5052 2.08863e-17)
(32.9812 21.1589 0)
(28.6222 16.0032 2.99418e-17)
(23.7681 10.9814 3.8362e-17)
(19.8846 7.04056 -5.58893e-17)
(17.093 4.41965 5.7164e-17)
(15.5728 2.96678 5.44675e-19)
(15.43 2.39675 5.29713e-17)
(15.8909 2.19207 -7.93747e-17)
(16.5264 2.05657 -3.82343e-17)
(17.1588 1.88099 -2.62279e-17)
(17.6838 1.64692 1.03027e-17)
(18.0535 1.36707 6.18914e-18)
(18.2689 1.05546 8.37817e-18)
(18.3509 0.723823 -1.26248e-18)
(18.3127 0.381476 1.25103e-18)
(18.1546 0.0398614 -1.33884e-18)
(17.8586 -0.291475 4.08396e-18)
(17.4343 -0.57598 8.47148e-18)
(16.9467 -0.789866 -7.00531e-18)
(16.458 -0.958274 -1.30771e-17)
(15.9711 -1.09969 -1.2905e-17)
(15.4657 -1.21617 1.208e-17)
(14.9312 -1.30853 0)
(14.364 -1.37813 0)
(13.7594 -1.42593 8.89673e-18)
(13.1113 -1.45188 7.82002e-18)
(12.414 -1.4558 7.51847e-18)
(11.662 -1.43724 1.29217e-17)
(10.8511 -1.39563 1.12261e-17)
(9.97656 -1.33025 0)
(9.03312 -1.2402 -5.69215e-20)
(8.02453 -1.12751 6.19181e-18)
(6.95547 -0.993232 0)
(5.88028 -0.846469 0)
(4.69658 -0.664405 0)
(3.87881 -0.496917 0)
(1.85509 -0.704598 -2.19767e-18)
(12.7856 26.5281 6.27707e-19)
(20.5784 29.4057 2.09128e-17)
(27.8919 29.0166 -2.087e-17)
(33.4209 27.4239 -1.85264e-17)
(36.9942 25.2833 1.65026e-17)
(38.6311 22.4259 -1.51427e-18)
(38.5313 18.9661 -2.0373e-17)
(37.2745 15.3723 -5.43119e-18)
(35.5342 12.0547 6.13718e-18)
(33.7496 9.26854 0)
(32.0187 7.06154 0)
(30.3928 5.42628 4.54222e-17)
(28.9395 4.24465 0)
(27.6895 3.34738 0)
(26.6295 2.61124 -9.51108e-18)
(25.738 1.97646 -6.74604e-18)
(24.9912 1.41486 -2.15634e-18)
(24.3565 0.911228 -7.74594e-18)
(23.7714 0.453354 -3.57175e-18)
(23.1634 0.0340067 1.77683e-18)
(22.4586 -0.351237 -5.887e-18)
(21.6681 -0.676782 -2.74144e-18)
(20.8794 -0.924121 3.7589e-18)
(20.1349 -1.12024 8.9052e-18)
(19.4282 -1.2834 9.39682e-18)
(18.7374 -1.41663 -8.17592e-18)
(18.0441 -1.52153 0)
(17.3378 -1.59989 0)
(16.6095 -1.65291 -6.2836e-18)
(15.8507 -1.68097 5.68627e-18)
(15.0547 -1.68439 -1.01418e-17)
(14.2152 -1.6632 3.16744e-20)
(13.3277 -1.61743 0)
(12.386 -1.54673 -6.60341e-18)
(11.3844 -1.45135 5.36937e-18)
(10.3277 -1.33279 5.9153e-20)
(9.21373 -1.19279 -4.67602e-20)
(8.08167 -1.03939 -1.82073e-18)
(6.83592 -0.861598 1.03269e-21)
(5.90178 -0.709709 3.03083e-19)
(3.97314 -0.963086 7.48248e-19)
(14.6318 23.2506 -7.22315e-19)
(20.3166 26.0382 -8.48517e-18)
(26.0596 26.5477 1.05307e-17)
(30.8012 25.3683 1.23392e-17)
(34.583 23.5862 -1.51673e-17)
(37.703 21.6712 -1.88177e-17)
(40.1132 19.5064 3.60992e-18)
(41.6083 16.9835 0)
(42.1821 14.307 0)
(42.0533 11.7899 1.60655e-17)
(41.5047 9.64785 0)
(40.7474 7.95226 -1.5664e-17)
(39.8905 6.61799 0)
(38.9573 5.50345 -1.37702e-17)
(37.905 4.50031 0)
(36.6833 3.55933 6.31899e-18)
(35.2794 2.66877 8.87474e-18)
(33.7222 1.83465 1.29823e-20)
(32.0685 1.06913 2.76729e-18)
(30.3898 0.386611 1.20419e-18)
(28.733 -0.205806 1.09551e-18)
(27.1967 -0.677764 4.31284e-18)
(25.8667 -1.01739 0)
(24.7165 -1.26825 6.56158e-18)
(23.6908 -1.46346 9.02519e-19)
(22.7348 -1.61564 1.35266e-17)
(21.8123 -1.73123 -7.71104e-19)
(20.9036 -1.81519 5.35913e-18)
(19.9959 -1.87071 -4.86339e-18)
(19.0789 -1.8993 -8.73882e-18)
(18.1438 -1.90173 3.87837e-18)
(17.1823 -1.87817 -1.36169e-17)
(16.1875 -1.82871 -1.6622e-19)
(15.1506 -1.75304 1.36429e-19)
(14.0645 -1.65179 -5.40861e-20)
(12.9327 -1.52652 1.31213e-19)
(11.7518 -1.38064 -4.20047e-20)
(10.5508 -1.22009 -3.70911e-20)
(9.24032 -1.0464 7.86866e-21)
(8.17845 -0.890314 4.52595e-21)
(6.27225 -1.03506 0)
(16.5208 20.5097 0)
(20.4376 22.8869 -1.2804e-18)
(24.8738 23.9841 -1.65719e-17)
(29.0601 23.6377 -2.38882e-17)
(32.4915 22.3604 2.49439e-17)
(35.2641 20.6647 -1.06962e-17)
(37.5955 18.7333 0)
(39.461 16.584 0)
(40.7135 14.3103 -1.23404e-17)
(41.3085 12.0885 -2.59228e-17)
(41.3578 10.0844 -1.25649e-17)
(41.0555 8.39094 0)
(40.6019 7.00647 0)
(40.1354 5.85843 1.40908e-17)
(39.6948 4.861 -2.748e-18)
(39.2527 3.95699 1.00271e-17)
(38.7561 3.11487 -4.80888e-18)
(38.1481 2.31854 0)
(37.3714 1.56001 0)
(36.3758 0.84117 0)
(35.1136 0.167403 -1.81787e-18)
(33.6545 -0.417494 -3.36144e-18)
(32.1428 -0.875271 0)
(30.6518 -1.23075 5.88051e-18)
(29.2209 -1.51092 -1.02627e-17)
(27.8636 -1.72891 -6.32895e-18)
(26.5798 -1.89306 -3.48635e-18)
(25.3627 -2.01091 -4.8206e-18)
(24.198 -2.08845 3.86017e-18)
(23.0677 -2.12951 6.93256e-18)
(21.9527 -2.13666 0)
(20.8358 -2.11167 5.51267e-18)
(19.7034 -2.05616 -1.57366e-19)
(18.5417 -1.97125 -3.65733e-20)
(17.3415 -1.85905 0)
(16.1049 -1.7224 -2.36547e-18)
(14.8288 -1.56662 0)
(13.5342 -1.39631 1.03192e-18)
(12.1402 -1.2215 0)
(10.9457 -1.0587 -1.25872e-20)
(9.01054 -1.06693 4.98269e-19)
(18.0289 18.234 0)
(20.8309 20.1237 0)
(24.0683 21.446 5.28639e-18)
(27.4872 21.8251 1.18513e-17)
(30.6552 21.2808 -2.19369e-17)
(33.3394 20.0622 1.76853e-17)
(35.5435 18.4047 -8.68469e-18)
(37.2883 16.4564 1.41882e-17)
(38.5298 14.3473 5.67433e-19)
(39.2346 12.2379 1.59372e-17)
(39.4557 10.2859 1.06167e-17)
(39.3244 8.59337 0)
(38.9999 7.18408 -4.73278e-18)
(38.6136 6.01051 9.34081e-18)
(38.2321 4.99617 -1.77149e-17)
(37.8666 4.08271 -4.20553e-18)
(37.5091 3.23803 -3.92375e-18)
(37.1491 2.44684 3.92766e-18)
(36.7745 1.70097 -8.4162e-20)
(36.3662 0.999611 -2.33676e-19)
(35.8913 0.343187 -9.55845e-19)
(35.3255 -0.236324 1.37623e-18)
(34.6702 -0.708273 0)
(33.9293 -1.09341 1.1537e-18)
(33.1041 -1.41402 6.66064e-18)
(32.1919 -1.67977 -1.06412e-18)
(31.1954 -1.89443 2.83592e-18)
(30.1241 -2.06112 9.0124e-20)
(28.9902 -2.18273 8.05754e-19)
(27.8055 -2.26124 -2.72596e-18)
(26.5805 -2.29841 2.80694e-19)
(25.323 -2.29597 -2.84395e-19)
(24.0391 -2.25588 0)
(22.7273 -2.17995 3.16256e-18)
(21.3861 -2.0709 -2.38401e-19)
(20.0199 -1.93231 1.83725e-20)
(18.6263 -1.77093 1.45713e-18)
(17.2182 -1.59145 -2.52087e-20)
(15.7217 -1.40851 -9.81556e-21)
(14.3941 -1.23263 -1.12859e-19)
(12.3904 -1.13241 -3.59283e-19)
(19.3277 16.3241 5.32072e-20)
(21.4175 17.7842 -7.26428e-19)
(23.7949 19.0049 2.05538e-18)
(26.4699 19.6683 0)
(29.2021 19.6259 0)
(31.7302 18.9465 -7.34277e-18)
(33.921 17.7702 7.71943e-18)
(35.7142 16.219 -1.50022e-17)
(37.0559 14.4143 -7.85754e-18)
(37.9112 12.5102 7.96569e-18)
(38.3095 10.6677 -7.79726e-18)
(38.3456 9.00147 7.80977e-18)
(38.1459 7.56175 -7.95291e-18)
(37.8281 6.33617 3.37933e-19)
(37.4665 5.27327 1.4344e-17)
(37.0875 4.32271 -2.76706e-19)
(36.6919 3.45198 6.53748e-18)
(36.2761 2.64336 -3.06033e-18)
(35.838 1.88682 6.08611e-18)
(35.3773 1.17899 -1.38871e-18)
(34.8957 0.520375 -6.56431e-19)
(34.4128 -0.059283 1.20153e-18)
(33.9431 -0.535789 2.22843e-18)
(33.4873 -0.928332 0)
(33.0439 -1.25806 1.8157e-18)
(32.5987 -1.53652 -1.81364e-18)
(32.1341 -1.76873 7.47162e-19)
(31.6335 -1.95795 2.07611e-18)
(31.0799 -2.10655 0)
(30.4562 -2.21551 -2.2361e-18)
(29.7464 -2.2849 -1.50472e-18)
(28.9366 -2.31468 -2.15303e-18)
(28.0175 -2.30486 1.44488e-18)
(26.9802 -2.25604 2.40461e-18)
(25.8219 -2.17013 1.94349e-18)
(24.5524 -2.05057 -1.42834e-18)
(23.1818 -1.90445 -1.11713e-18)
(21.7342 -1.73691 -7.08187e-19)
(20.1612 -1.56404 -3.63658e-19)
(18.7112 -1.38725 0)
(16.6229 -1.25679 -2.1316e-19)
(20.4227 14.7029 -4.17753e-20)
(22.0409 15.8223 5.61489e-19)
(23.8199 16.8446 -1.7069e-18)
(25.8502 17.5796 -3.04616e-18)
(28.0559 17.8555 -7.5275e-18)
(30.259 17.6161 7.30437e-18)
(32.31 16.9007 1.42953e-17)
(34.1049 15.7812 1.19312e-17)
(35.5598 14.3502 3.42419e-19)
(36.6109 12.7315 -1.21123e-17)
(37.2455 11.0681 1.86253e-17)
(37.5145 9.47985 0)
(37.5099 8.0427 -1.81687e-17)
(37.3327 6.78161 1.21347e-17)
(37.0618 5.67601 5.60921e-18)
(36.7387 4.68931 -1.6726e-17)
(36.3764 3.791 -5.38884e-18)
(35.9762 2.96167 2.5042e-18)
(35.5364 2.18974 2.38394e-18)
(35.0548 1.46977 5.55914e-18)
(34.5291 0.801386 -8.52562e-18)
(33.9844 0.212116 2.20859e-18)
(33.4479 -0.277882 1.90863e-18)
(32.9279 -0.684609 0)
(32.4335 -1.02574 1.58437e-18)
(31.9653 -1.31371 -1.39722e-18)
(31.5209 -1.55507 1.39923e-18)
(31.0982 -1.7539 -1.64634e-20)
(30.6947 -1.91333 -2.15677e-18)
(30.3051 -2.03518 -4.46871e-19)
(29.9211 -2.12016 4.19119e-18)
(29.5298 -2.1684 1.05002e-18)
(29.1136 -2.17964 -9.31877e-19)
(28.6488 -2.15387 -2.03934e-18)
(28.1066 -2.09195 -1.65798e-19)
(27.4601 -1.99588 -7.03653e-20)
(26.6788 -1.87141 0)
(25.7508 -1.72275 -6.6057e-20)
(24.6007 -1.57069 2.60757e-19)
(23.4317 -1.3974 9.24312e-22)
(21.5968 -1.31634 1.53654e-19)
(21.3574 13.3043 3.60669e-20)
(22.6488 14.1608 0)
(24.0188 14.9743 -1.43357e-18)
(25.5615 15.6425 0)
(27.285 16.0387 7.75637e-20)
(29.1041 16.0729 -1.71227e-18)
(30.9042 15.7181 -8.33021e-18)
(32.5797 14.9937 0)
(34.0383 13.9479 9.73238e-19)
(35.2015 12.6631 -1.81715e-17)
(36.0245 11.2503 -5.20047e-18)
(36.5147 9.81782 1.40131e-17)
(36.7229 8.45222 4.91733e-18)
(36.7218 7.20443 -4.4964e-18)
(36.5827 6.0837 4.40498e-18)
(36.3557 5.07395 4.48312e-18)
(36.066 4.15363 8.27562e-18)
(35.7237 3.3059 -1.01834e-17)
(35.332 2.51963 2.01612e-18)
(34.8915 1.78867 0)
(34.4001 1.11194 4.2448e-19)
(33.8801 0.514765 -8.15812e-19)
(33.3562 0.0142012 6.29879e-19)
(32.8346 -0.404313 -2.32907e-19)
(32.3238 -0.755167 3.90367e-18)
(31.8265 -1.05054 -2.51111e-18)
(31.342 -1.29805 0)
(30.8708 -1.50261 9.31736e-19)
(30.4145 -1.66796 1.71118e-18)
(29.9754 -1.79676 7.59769e-19)
(29.5566 -1.89049 -2.08474e-18)
(29.1614 -1.94975 6.62212e-19)
(28.7927 -1.9746 0)
(28.4511 -1.96484 8.88456e-19)
(28.1325 -1.92065 -1.39925e-18)
(27.8288 -1.84268 5.6738e-20)
(27.5155 -1.73523 -1.20799e-19)
(27.1754 -1.59834 1.09035e-18)
(26.7174 -1.45765 2.76341e-20)
(26.2373 -1.2743 0)
(25.2832 -1.21759 3.23168e-20)
(22.1521 12.0846 -2.81496e-20)
(23.2054 12.7398 2.95135e-20)
(24.2895 13.3716 3.01195e-19)
(25.479 13.9278 2.37602e-18)
(26.8089 14.3308 9.83426e-19)
(28.254 14.5048 -3.37023e-18)
(29.752 14.3987 0)
(31.2229 13.992 1.14024e-17)
(32.5847 13.2954 -1.81518e-17)
(33.7591 12.3493 6.67957e-18)
(34.6857 11.2261 -6.56254e-18)
(35.3411 10.0093 -1.10515e-17)
(35.7381 8.77858 1.44161e-17)
(35.9157 7.59682 -1.05919e-17)
(35.9262 6.49664 1.38672e-17)
(35.8166 5.48464 -3.67039e-18)
(35.6188 4.55367 -3.43186e-18)
(35.3509 3.69368 0)
(35.0221 2.89623 0)
(34.6374 2.15573 0)
(34.1981 1.47073 4.98505e-18)
(33.7268 0.865119 -5.3862e-18)
(33.2461 0.353805 6.17544e-19)
(32.7612 -0.0772973 0)
(32.2799 -0.44 0)
(31.8058 -0.745275 -9.00606e-19)
(31.3394 -1.00095 1.87699e-18)
(30.8801 -1.21226 -1.6448e-18)
(30.4283 -1.38321 1.47235e-18)
(29.9847 -1.51688 -1.323e-18)
(29.5503 -1.61555 5.52786e-19)
(29.1271 -1.68091 -1.58652e-18)
(28.7184 -1.71433 -8.95987e-19)
(28.3283 -1.71692 1.60118e-20)
(27.9625 -1.68966 -6.33941e-19)
(27.6299 -1.63313 5.69177e-19)
(27.3332 -1.55053 -9.09251e-19)
(27.0812 -1.43794 -5.12092e-19)
(26.8431 -1.31521 1.64211e-20)
(26.6503 -1.14218 -1.61915e-20)
(26.3552 -1.04673 -2.68551e-20)
(22.8259 11.0116 0)
(23.6995 11.512 5.11398e-19)
(24.5771 11.9957 3.56867e-19)
(25.5134 12.4361 3.07538e-18)
(26.5449 12.7892 -5.7772e-18)
(27.6743 13.0039 4.36579e-18)
(28.8771 13.0335 2.89072e-18)
(30.1071 12.8443 -4.40745e-18)
(31.3046 12.4215 1.321e-17)
(32.4043 11.7753 9.97652e-18)
(33.346 10.9417 5.68697e-18)
(34.0913 9.97303 0)
(34.6264 8.93025 0)
(34.9599 7.87236 1.09197e-17)
(35.1192 6.84281 -1.37884e-17)
(35.1383 5.86542 -2.78879e-18)
(35.0472 4.94846 7.75899e-18)
(34.8674 4.09197 -1.77737e-17)
(34.6128 3.29325 2.62059e-18)
(34.2923 2.54955 3.39382e-18)
(33.9109 1.86042 -3.4707e-18)
(33.4914 1.24934 4.02234e-18)
(33.0565 0.730001 -4.06111e-18)
(32.6117 0.288572 4.51675e-19)
(32.165 -0.0848542 8.42367e-19)
(31.7216 -0.399812 -3.82939e-18)
(31.2834 -0.663948 2.61759e-19)
(30.8512 -0.882768 2.03511e-19)
(30.4257 -1.06045 5.50196e-20)
(30.0075 -1.20028 1.0936e-18)
(29.5973 -1.30483 9.69265e-19)
(29.1956 -1.37611 8.5573e-19)
(28.8037 -1.41593 7.42062e-19)
(28.4222 -1.42602 -1.5721e-18)
(28.0528 -1.40826 8.20434e-19)
(27.7001 -1.36436 4.27404e-19)
(27.3676 -1.29802 1.03181e-18)
(27.0603 -1.20802 0)
(26.779 -1.10438 4.22734e-19)
(26.5311 -0.966302 -2.30464e-20)
(26.326 -0.839712 4.70687e-21)
(23.3942 10.0628 0)
(24.1273 10.444 -1.3882e-20)
(24.8502 10.8105 0)
(25.6019 11.1493 0)
(26.4128 11.4359 -1.40504e-18)
(27.2944 11.6394 0)
(28.2424 11.7266 -6.26422e-18)
(29.2357 11.6661 0)
(30.2392 11.4347 -1.97663e-17)
(31.2067 11.0237 2.65888e-17)
(32.089 10.4439 -5.5779e-18)
(32.8465 9.72085 -1.87378e-17)
(33.4529 8.89183 -8.18804e-18)
(33.8964 8.00135 -1.5472e-19)
(34.1816 7.0905 1.21097e-17)
(34.3251 6.19045 -8.13964e-18)
(34.3473 5.3207 1.21979e-17)
(34.2671 4.49162 1.56183e-19)
(34.0994 3.70808 -5.50218e-18)
(33.8554 2.97223 8.45499e-18)
(33.5423 2.28635 -4.84998e-20)
(33.183 1.67477 -4.03201e-19)
(32.7999 1.1512 -6.03572e-18)
(32.4003 0.702522 5.7098e-18)
(31.9926 0.320317 1.60299e-18)
(31.583 -0.0035398 -2.65134e-18)
(31.1751 -0.276136 0)
(30.7711 -0.502989 3.68631e-18)
(30.3725 -0.688408 -3.94004e-18)
(29.9806 -0.835849 1.87259e-19)
(29.5966 -0.948115 8.88684e-19)
(29.2217 -1.02751 -7.09391e-19)
(28.857 -1.07603 0)
(28.5031 -1.09563 5.34679e-19)
(28.1608 -1.08815 4.41864e-20)
(27.8322 -1.05546 2.47122e-19)
(27.5185 -1.00038 -5.94115e-19)
(27.2191 -0.923945 1.40202e-19)
(26.9345 -0.830323 -3.76486e-19)
(26.6676 -0.71456 3.91514e-20)
(26.4265 -0.589459 0)
(23.8701 9.22148 3.7324e-20)
(24.4906 9.51027 -7.44769e-20)
(25.0938 9.78514 0)
(25.7074 10.0403 0)
(26.355 10.2618 1.53979e-18)
(27.0491 10.4321 2.04938e-18)
(27.7933 10.5299 1.20817e-17)
(28.5808 10.5318 -3.12127e-18)
(29.3945 10.4165 0)
(30.2066 10.169 -2.63652e-18)
(30.9825 9.7856 1.07881e-18)
(31.6898 9.27383 3.12854e-18)
(32.3015 8.65132 0)
(32.7965 7.94491 1.5071e-17)
(33.1651 7.18509 -1.25591e-17)
(33.4082 6.40061 1.23286e-17)
(33.5339 5.61473 -1.39186e-17)
(33.5538 4.84429 -1.28629e-18)
(33.4792 4.10071 0)
(33.3207 3.39155 0)
(33.086 2.72289 -7.06623e-19)
(32.7964 2.12089 3.35453e-19)
(32.4736 1.60056 2.99336e-19)
(32.127 1.15049 0)
(31.7657 0.763853 -4.48367e-18)
(31.3969 0.433992 -4.22512e-18)
(31.0254 0.154729 3.61884e-18)
(30.6546 -0.0791178 -4.07163e-18)
(30.2869 -0.271802 0)
(29.9242 -0.426852 6.61667e-19)
(29.5682 -0.547242 -2.6196e-18)
(29.2205 -0.635514 3.51683e-18)
(28.8824 -0.693901 -5.85278e-19)
(28.5549 -0.724582 0)
(28.2388 -0.729429 3.77884e-19)
(27.9365 -0.710278 -2.11919e-20)
(27.6493 -0.669299 2.70646e-19)
(27.3763 -0.608017 0)
(27.1176 -0.528715 8.07574e-20)
(26.8762 -0.430773 -1.10184e-19)
(26.6494 -0.323934 2.97387e-20)
(24.2658 8.47472 -7.18514e-20)
(24.794 8.6918 3.99604e-20)
(25.3018 8.89552 0)
(25.8092 9.08405 -7.5655e-19)
(26.3339 9.24951 -1.2928e-18)
(26.8868 9.38179 -1.71968e-18)
(27.4739 9.46807 -2.17004e-18)
(28.0947 9.49286 -2.63853e-18)
(28.7425 9.43995 1.18117e-17)
(29.4026 9.29503 1.63831e-18)
(30.0537 9.04934 -1.26527e-17)
(30.6735 8.70045 1.99006e-17)
(31.24 8.25334 1.16069e-18)
(31.732 7.72059 -1.94215e-17)
(32.1341 7.12027 -2.45658e-18)
(32.4377 6.47315 0)
(32.6408 5.79956 -2.14592e-18)
(32.7461 5.11731 4.5698e-18)
(32.7592 4.44094 -1.09625e-17)
(32.6869 3.7818 2.65492e-19)
(32.5354 3.14936 8.56393e-18)
(32.3219 2.57166 6.88595e-18)
(32.0666 2.06575 -6.736e-19)
(31.7803 1.62308 -7.28346e-18)
(31.4729 1.2388 0)
(31.1524 0.907934 0)
(30.8245 0.625483 0)
(30.4936 0.386948 0)
(30.1628 0.188399 0)
(29.8347 0.0264327 5.9324e-19)
(29.5116 -0.101929 2.6267e-19)
(29.1952 -0.199323 -1.86994e-18)
(28.8871 -0.268102 9.08533e-19)
(28.5883 -0.310618 -3.3568e-19)
(28.3 -0.328828 1.01415e-18)
(28.0241 -0.324602 -1.45447e-18)
(27.7621 -0.299955 3.09819e-19)
(27.5137 -0.256664 2.04446e-19)
(27.2793 -0.196724 -2.99e-19)
(27.0618 -0.120213 -7.92155e-20)
(26.8596 -0.0363493 1.24874e-19)
(24.5918 7.81232 0)
(25.0431 7.9736 -4.70675e-19)
(25.4732 8.12226 1.13957e-18)
(25.8967 8.25873 6.35878e-19)
(26.3271 8.37833 -1.5385e-18)
(26.773 8.4753 1.98711e-18)
(27.2402 8.54206 -8.29384e-18)
(27.7308 8.56881 2.89964e-18)
(28.243 8.5444 -8.03271e-18)
(28.77 8.45776 8.0248e-18)
(29.2997 8.30001 2.73287e-18)
(29.8186 8.06545 -2.29648e-17)
(30.3116 7.75234 1.02769e-17)
(30.7618 7.36438 2.0902e-18)
(31.154 6.90997 1.25817e-17)
(31.4765 6.40115 0)
(31.7217 5.85207 1.82504e-18)
(31.886 5.2773 -3.38534e-18)
(31.9689 4.69059 1.79006e-18)
(31.9726 4.10416 0)
(31.8999 3.52906 0)
(31.7627 2.99375 -5.20312e-18)
(31.5776 2.51699 6.73115e-18)
(31.3559 2.09373 1.53142e-19)
(31.1079 1.72156 0)
(30.8415 1.39736 -4.85212e-18)
(30.5633 1.1176 9.4057e-18)
(30.2782 0.878772 -4.54207e-18)
(29.99 0.677566 2.07173e-18)
(29.702 0.510946 -1.94957e-18)
(29.4166 0.376134 -2.17564e-19)
(29.1359 0.270578 1.88098e-18)
(28.862 0.191947 -3.23849e-19)
(28.5956 0.137843 -1.65593e-18)
(28.3382 0.106287 -5.33756e-19)
(28.0915 0.0954243 1.00301e-18)
(27.857 0.103326 -4.69266e-19)
(27.6344 0.128029 3.59669e-19)
(27.4242 0.16765 -2.30459e-20)
(27.2286 0.221735 2.10917e-19)
(27.0473 0.282384 -1.6717e-19)
(24.8574 7.22569 -3.00064e-20)
(25.2437 7.34352 2.964e-20)
(25.6094 7.44982 -1.0728e-18)
(25.9654 7.54619 0)
(26.3217 7.62963 1.29008e-18)
(26.6852 7.69686 -1.66515e-18)
(27.0608 7.74342 3.7728e-18)
(27.4512 7.7632 2.46024e-18)
(27.8566 7.7489 0)
(28.2742 7.69273 0)
(28.6976 7.58759 1.54374e-17)
(29.1193 7.42775 -1.429e-17)
(29.5299 7.20938 0)
(29.9179 6.93162 -4.38985e-18)
(30.2713 6.59696 -1.86551e-17)
(30.5791 6.21105 1.6256e-17)
(30.8324 5.78191 -9.73796e-18)
(31.0245 5.31932 1.0961e-17)
(31.1515 4.83376 0)
(31.2114 4.3358 0)
(31.2038 3.83575 0)
(31.1346 3.36021 0)
(31.016 2.92827 8.10903e-18)
(30.8583 2.53819 -8.98612e-18)
(30.671 2.18989 0)
(30.4617 1.88219 0)
(30.237 1.61312 3.50772e-18)
(30.0019 1.38037 -3.51707e-18)
(29.7608 1.1815 -3.16418e-18)
(29.517 1.01407 3.01664e-18)
(29.2734 0.8757 8.28781e-20)
(29.0323 0.764124 0)
(28.7958 0.6772 -1.44852e-19)
(28.565 0.612634 9.91883e-19)
(28.3412 0.568536 -9.49154e-20)
(28.1262 0.543164 -7.86631e-19)
(27.9213 0.534737 0)
(27.7261 0.541224 0)
(27.5414 0.560924 -2.9184e-19)
(27.3687 0.593181 1.52137e-19)
(27.208 0.631594 0)
(25.071 6.70638 3.28154e-20)
(25.4016 6.79049 0)
(25.7131 6.86456 4.28389e-19)
(26.0134 6.9306 -1.19142e-18)
(26.3102 6.98642 -3.86457e-18)
(26.6088 7.03014 1.84616e-18)
(26.9135 7.05915 -2.64741e-18)
(27.2266 7.06961 0)
(27.5491 7.05677 0)
(27.8799 7.01538 1.0404e-17)
(28.216 6.94033 -1.18876e-17)
(28.5531 6.82704 8.87951e-19)
(28.886 6.67168 8.84324e-18)
(29.2072 6.47199 -9.67364e-18)
(29.5085 6.22758 -1.43983e-18)
(29.7815 5.94026 1.84356e-18)
(30.0181 5.61394 -1.22729e-17)
(30.2116 5.25416 2.76461e-17)
(30.3566 4.86774 -1.38387e-17)
(30.4492 4.46237 -1.22924e-17)
(30.4866 4.04623 1.3802e-17)
(30.4702 3.64203 0)
(30.4074 3.26739 -7.68259e-19)
(30.3068 2.92288 0)
(30.1761 2.61013 -5.94164e-18)
(30.0221 2.32953 1.19344e-17)
(29.8506 2.08051 1.10032e-17)
(29.6665 1.86192 -5.34918e-18)
(29.474 1.67224 0)
(29.2765 1.50975 -2.17176e-18)
(29.0769 1.37264 2.13719e-18)
(28.8776 1.25907 0)
(28.6807 1.16723 0)
(28.4874 1.0951 -2.56763e-20)
(28.2991 1.041 0)
(28.1173 1.00338 -1.31169e-19)
(27.9432 0.980723 0)
(27.7768 0.971048 0)
(27.6185 0.972932 1.26231e-19)
(27.4696 0.985641 -7.81795e-22)
(27.3301 1.0044 -1.64723e-19)
(25.234 6.2683 -1.46712e-19)
(25.5188 6.32761 1.23089e-18)
(25.786 6.37847 -9.63324e-19)
(26.0417 6.42278 1.05985e-18)
(26.2917 6.45874 -1.25252e-18)
(26.5404 6.48532 9.12982e-18)
(26.7913 6.50099 2.44326e-18)
(27.0464 6.50322 -1.88234e-17)
(27.3069 6.48885 1.12062e-18)
(27.5724 6.45433 8.44113e-18)
(27.8413 6.39606 1.89924e-18)
(28.1114 6.31067 -3.85215e-18)
(28.3795 6.19506 3.89576e-19)
(28.6412 6.04691 0)
(28.8908 5.86492 -8.7298e-19)
(29.1226 5.64914 -1.16148e-18)
(29.3302 5.40104 -1.21668e-17)
(29.508 5.12354 2.2818e-17)
(29.6509 4.82071 -1.08276e-17)
(29.7546 4.49762 -1.50787e-18)
(29.8156 4.16009 -1.08896e-17)
(29.8324 3.8263 1.01834e-17)
(29.8089 3.51132 7.12374e-19)
(29.7516 3.21684 0)
(29.6663 2.94533 0)
(29.5586 2.6981 -3.16735e-19)
(29.4333 2.47553 2.68501e-19)
(29.2947 2.27732 0)
(29.1465 2.10271 0)
(28.9918 1.95065 -1.15087e-19)
(28.8335 1.81989 0)
(28.6736 1.70904 -1.63746e-18)
(28.5143 1.61671 1.68098e-18)
(28.3568 1.5412 2.35025e-20)
(28.2024 1.48113 2.07352e-20)
(28.0524 1.43522 6.44246e-19)
(27.908 1.40224 -6.04692e-19)
(27.7691 1.38039 0)
(27.6364 1.36855 1.52104e-20)
(27.5106 1.36598 0)
(27.3921 1.36942 4.93449e-20)
(25.3535 5.91497 -9.51317e-21)
(25.6021 5.95666 -1.31412e-19)
(25.8344 5.99119 -1.34196e-18)
(26.0553 6.02017 3.9758e-18)
(26.2695 6.04207 -7.40405e-19)
(26.4806 6.05639 4.56636e-18)
(26.6915 6.0622 -5.86265e-18)
(26.9039 6.05777 7.97642e-18)
(27.1189 6.04092 -1.27405e-18)
(27.3365 6.00917 -7.81811e-18)
(27.5557 5.95999 -1.13076e-17)
(27.7754 5.89095 1.29804e-17)
(27.9937 5.7997 1.78091e-18)
(28.2075 5.68432 1.62391e-18)
(28.4134 5.54347 1.56939e-17)
(28.6071 5.3766 1.90641e-18)
(28.7842 5.1841 -1.6164e-17)
(28.9403 4.96736 -1.17898e-18)
(29.071 4.72871 -8.85892e-18)
(29.1726 4.4714 1.77002e-17)
(29.2417 4.19937 -8.81665e-18)
(29.2756 3.92673 5.9517e-19)
(29.276 3.66577 0)
(29.2477 3.41847 0)
(29.1948 3.18745 4.80272e-19)
(29.1217 2.97438 3.87668e-18)
(29.0321 2.78011 -3.61127e-18)
(28.9297 2.60487 -3.979e-18)
(28.8176 2.44843 6.91416e-18)
(28.6985 2.31019 -3.25766e-18)
(28.5748 2.18936 -1.85663e-19)
(28.4486 2.08497 2.84649e-18)
(28.3215 1.99598 -4.21903e-18)
(28.1949 1.92104 2.66212e-18)
(28.0699 1.85906 -9.67327e-20)
(27.9476 1.80905 -2.25732e-18)
(27.8291 1.77003 1.59783e-18)
(27.7145 1.74045 -5.35807e-19)
(27.6043 1.71947 2.04823e-19)
(27.4991 1.70635 -2.04936e-19)
(27.3995 1.69912 0)
(25.4431 5.62552 8.44973e-21)
(25.6622 5.65437 -6.72048e-19)
(25.8665 5.67714 6.77345e-19)
(26.0596 5.69514 3.57807e-18)
(26.2455 5.707 -3.05354e-18)
(26.4274 5.71256 3.79055e-18)
(26.6075 5.71128 -4.733e-18)
(26.7874 5.70194 0)
(26.9681 5.68296 1.61206e-18)
(27.1496 5.65258 6.3137e-18)
(27.3315 5.60897 -1.71837e-17)
(27.513 5.55039 1.12617e-17)
(27.6929 5.47509 -9.46887e-18)
(27.8692 5.38159 -2.26249e-18)
(28.0395 5.26873 9.1416e-19)
(28.2009 5.13589 2.64673e-17)
(28.3501 4.98302 -1.1289e-17)
(28.484 4.81077 0)
(28.5991 4.62047 -1.63321e-18)
(28.6924 4.41415 8.31912e-19)
(28.7609 4.19446 0)
(28.8016 3.97226 0)
(28.8152 3.75734 0)
(28.805 3.55152 -8.10229e-19)
(28.7742 3.3572 -4.5305e-19)
(28.7257 3.17608 -3.85076e-19)
(28.6627 3.00916 3.72818e-19)
(28.588 2.85692 -2.57648e-18)
(28.5042 2.71942 2.96989e-18)
(28.4135 2.59642 3.30715e-19)
(28.3179 2.48741 -1.41475e-19)
(28.2192 2.39173 -2.30225e-18)
(28.1189 2.30866 4.76418e-18)
(28.018 2.23715 -2.38424e-18)
(27.9177 2.17635 0)
(27.819 2.12552 -9.71003e-19)
(27.7227 2.08391 1.42332e-18)
(27.6289 2.05022 -4.25838e-19)
(27.5381 2.02382 2.00524e-19)
(27.451 2.00405 -2.11717e-19)
(27.3678 1.98985 0)
(25.5113 5.38404 1.22501e-19)
(25.7061 5.40338 -6.68164e-19)
(25.887 5.4176 5.68947e-19)
(26.0574 5.42763 -2.15306e-18)
(26.2203 5.43225 0)
(26.3787 5.43153 1.84956e-18)
(26.5344 5.42519 0)
(26.6888 5.41231 -2.86596e-18)
(26.8427 5.39174 9.59668e-18)
(26.9963 5.36219 -2.77513e-18)
(27.1494 5.32234 5.60201e-18)
(27.3013 5.2709 -9.34023e-18)
(27.4513 5.2066 -1.11696e-18)
(27.598 5.12833 -9.1648e-18)
(27.7397 5.03518 1.03e-17)
(27.8744 4.92661 -1.88193e-19)
(27.9997 4.80244 -1.4253e-18)
(28.1133 4.66299 -1.27328e-18)
(28.2126 4.50905 1.52331e-18)
(28.2952 4.34193 -7.76578e-19)
(28.3587 4.1634 0)
(28.4004 3.98182 0)
(28.4203 3.80492 0)
(28.4209 3.63423 1.42979e-18)
(28.4044 3.47178 -6.14692e-18)
(28.373 3.31909 5.82711e-18)
(28.3292 3.17713 4.82006e-18)
(28.2752 3.04647 -5.14741e-18)
(28.2129 2.92731 0)
(28.1443 2.81957 1.98887e-18)
(28.0709 2.72299 -4.19266e-18)
(27.9943 2.63712 1.7931e-18)
(27.9156 2.56144 -1.99785e-18)
(27.8359 2.49517 1.98885e-18)
(27.7561 2.43766 -2.21862e-19)
(27.6769 2.38837 8.53437e-19)
(27.5991 2.34673 -9.49898e-19)
(27.5229 2.31167 0)
(27.4488 2.28275 0)
(27.3771 2.25934 8.53521e-20)
(27.3082 2.24109 -8.08686e-20)
(25.5641 5.17957 -1.49275e-20)
(25.7382 5.19179 6.31097e-19)
(25.8995 5.19969 1.59505e-18)
(26.0508 5.20386 -2.60811e-18)
(26.1948 5.20322 2.06285e-18)
(26.3338 5.19798 0)
(26.4696 5.18804 0)
(26.6035 5.1727 -2.28266e-19)
(26.7361 5.1511 7.38218e-18)
(26.8676 5.12228 -1.87241e-17)
(26.9977 5.08527 5.55647e-18)
(27.1263 5.03913 4.94269e-18)
(27.2526 4.98291 4.65224e-19)
(27.3758 4.91581 -1.60287e-17)
(27.4946 4.83715 -1.45255e-18)
(27.6075 4.7465 -1.47816e-18)
(27.7128 4.64371 1.68536e-17)
(27.8087 4.52893 1.48488e-18)
(27.8934 4.40266 -9.93666e-18)
(27.9651 4.2658 1.07945e-18)
(28.0219 4.11956 -1.04544e-17)
(28.0614 3.97042 9.3442e-18)
(28.0835 3.82447 5.76343e-18)
(28.09 3.68289 -5.26951e-18)
(28.0825 3.54736 6.1206e-19)
(28.0628 3.41916 4.41208e-18)
(28.0325 3.29914 -4.39164e-18)
(27.9935 3.18785 0)
(27.9474 3.08554 4.62435e-18)
(27.8956 2.99222 1.93595e-18)
(27.8394 2.90776 -1.92769e-18)
(27.7801 2.83185 2.40021e-19)
(27.7187 2.76414 -2.08085e-19)
(27.6559 2.70402 1.63299e-18)
(27.5925 2.65103 -1.60826e-18)
(27.5293 2.60476 9.25526e-19)
(27.4668 2.56479 -6.45696e-19)
(27.4053 2.53025 1.66305e-19)
(27.345 2.50083 1.61618e-19)
(27.2864 2.47597 -3.22926e-19)
(27.2297 2.45576 3.66817e-21)
(25.6055 5.00437 1.66824e-19)
(25.7618 5.01122 -3.13391e-19)
(25.9063 5.01442 -5.30397e-19)
(26.0414 5.01428 0)
(26.1692 5.00979 -1.82195e-18)
(26.2921 5.00132 -5.09548e-18)
(26.4115 4.98885 8.53158e-18)
(26.5285 4.97186 -1.31803e-17)
(26.6437 4.94969 1.67778e-17)
(26.7572 4.92163 -5.70469e-18)
(26.869 4.88695 -8.34202e-18)
(26.9788 4.84496 5.96137e-19)
(27.0861 4.79497 9.22687e-18)
(27.1904 4.73638 7.57019e-18)
(27.2906 4.66873 -6.03178e-18)
(27.3857 4.5917 1.53968e-18)
(27.4743 4.50516 0)
(27.5553 4.40924 -7.19319e-18)
(27.6273 4.30428 7.30773e-18)
(27.6888 4.19092 -1.00352e-18)
(27.7384 4.07002 8.59273e-18)
(27.7743 3.94668 -8.45958e-18)
(27.7963 3.82567 -1.02206e-18)
(27.8057 3.70792 0)
(27.8036 3.59475 0)
(27.7915 3.48719 3.19495e-18)
(27.7707 3.38597 -3.18894e-18)
(27.7426 3.29155 3.44662e-18)
(27.7084 3.20418 2.98068e-18)
(27.6692 3.12393 -3.23595e-18)
(27.6262 3.0507 1.65986e-18)
(27.5803 2.98431 3.06087e-18)
(27.5324 2.9245 -1.30446e-18)
(27.483 2.87082 0)
(27.4328 2.82291 1.55471e-20)
(27.3825 2.78047 -1.70461e-19)
(27.3324 2.7432 1.50117e-19)
(27.2827 2.71039 -1.55467e-19)
(27.2339 2.68182 1.48319e-19)
(27.1862 2.65701 6.16713e-20)
(27.1397 2.63632 1.94334e-19)
(25.6381 4.85275 0)
(25.779 4.85555 2.31104e-19)
(25.909 4.85525 0)
(26.0301 4.85191 0)
(26.1442 4.84463 5.14059e-18)
(26.2534 4.83386 -3.57113e-18)
(26.359 4.81966 2.44134e-18)
(26.4619 4.80162 -3.97338e-18)
(26.5626 4.77925 2.90289e-18)
(26.6613 4.75202 0)
(26.758 4.71937 0)
(26.8524 4.6808 0)
(26.9443 4.63581 1.03825e-17)
(27.0332 4.58398 -1.90686e-17)
(27.1183 4.52498 9.85931e-18)
(27.1987 4.45858 -1.42815e-18)
(27.2737 4.38474 0)
(27.3422 4.30354 0)
(27.4032 4.21526 7.95862e-19)
(27.4556 4.12038 0)
(27.4985 4.01954 -5.43344e-18)
(27.5303 3.91678 6.25124e-18)
(27.5509 3.81589 -7.28618e-19)
(27.5613 3.71755 -7.25208e-19)
(27.5624 3.62281 6.05369e-18)
(27.5553 3.53247 -4.92103e-18)
(27.5411 3.44712 -4.53718e-20)
(27.5207 3.36715 3.40239e-19)
(27.4952 3.29276 3.32025e-19)
(27.4655 3.22403 3.23193e-19)
(27.4325 3.16092 3.13918e-19)
(27.3969 3.10328 -1.26077e-18)
(27.3593 3.05094 1.25513e-18)
(27.3205 3.00354 0)
(27.2807 2.96081 -1.25634e-18)
(27.2406 2.92254 1.39284e-18)
(27.2004 2.88849 3.85083e-19)
(27.1604 2.8581 -5.22632e-19)
(27.1209 2.83122 -1.18852e-19)
(27.0821 2.80742 -1.23263e-19)
(27.0441 2.78722 -1.1816e-19)
(25.6641 4.72044 0)
(25.7915 4.7202 -2.09106e-19)
(25.9087 4.71729 6.82788e-19)
(26.0176 4.71159 -2.29477e-18)
(26.1199 4.7023 2.36097e-18)
(26.2172 4.68993 0)
(26.311 4.67457 1.83036e-18)
(26.402 4.65595 2.2684e-19)
(26.4906 4.63366 -2.67032e-18)
(26.5769 4.60731 0)
(26.6611 4.57651 -4.98786e-18)
(26.7428 4.54087 4.94336e-18)
(26.822 4.50003 -1.73978e-18)
(26.8982 4.4537 0)
(26.9708 4.40166 0)
(27.0393 4.34378 0)
(27.1029 4.28004 0)
(27.1609 4.21053 -1.11185e-18)
(27.2126 4.1355 0)
(27.2573 4.05532 0)
(27.294 3.97046 -1.84741e-18)
(27.3218 3.88419 6.75449e-19)
(27.3404 3.79952 -5.1532e-19)
(27.3508 3.71698 1.26727e-18)
(27.3536 3.63734 0)
(27.3497 3.56125 4.23215e-18)
(27.3399 3.48916 -5.76591e-18)
(27.325 3.42138 -2.66566e-18)
(27.3059 3.35808 1.48169e-18)