/*--------------------------------*- C++ -*----------------------------------*\
| =========                 |                                                 |
| \\      /  F ield         | OpenFOAM: The Open Source CFD Toolbox           |
|  \\    /   O peration     | Version:  2312                                  |
|   \\  /    A nd           | Website:  www.openfoam.com                      |
|    \\/     M anipulation  |                                                 |
\*---------------------------------------------------------------------------*/
FoamFile
{
    version     2.0;
    format      ascii;
    arch        "LSB;label=32;scalar=64";
    class       volScalarField;
    location    "200";
    object      div(phi);
}
// * * * * * * * * * * * * * * * * * * * * * * * * * * * * * * * * * * * * * //

dimensions      [0 0 -1 0 0 0 0];

internalField   nonuniform List<scalar> 
11040
(
-7.42087e-05
0.0011817
-0.0111563
-0.0138448
-0.00519372
-0.00131506
-0.0299284
-0.0169796
0.0579776
0.0461424
-0.0330762
6.24314e-06
-0.0363972
0.0167739
-0.00301446
-0.0075828
-0.0187366
-0.00483248
-0.0138647
-0.00208215
0.00186693
-0.0125701
-0.00446289
-0.00344962
-0.00240911
-0.00210632
0.000494896
-0.00278105
0.00392042
-0.00474388
0.00611957
-0.00496934
0.00720539
-0.00470231
0.00932837
-0.0105312
0.00571351
-0.00798283
0.00953141
0.0010687
0.0150048
-0.00133386
-0.00689852
-0.0125749
-0.0166152
-0.0194254
-0.0254166
-0.0306143
-0.0343303
-0.0332385
-0.0429168
-0.0421746
-0.0270203
-0.0251112
0.0174265
0.00947481
0.0152241
0.00701022
0.0100918
0.00569877
0.00353625
0.00767937
-0.00573489
0.00130604
-0.0043535
-0.00251701
-0.00200968
-0.00367205
-0.00426338
-0.00255966
-0.00537266
-3.39946e-05
-0.00408791
0.00437099
0.000551284
0.00951726
0.004885
0.01166
0.00632164
0.0130442
0.0118154
0.0243714
-0.00584396
-0.00470215
-0.00800409
-0.00786868
-0.00526584
-0.00311476
-0.00357589
-2.81696e-05
0.00928624
0.0122625
0.00296481
0.00291958
0.000940865
-0.000803589
0.000469429
-0.00411133
-0.00561787
-0.00269668
-0.00596884
-0.00094202
-0.00298466
-0.00279175
-0.00287364
-0.000107942
-0.000629836
-0.0006991
0.00109636
-0.000164947
0.00194357
-0.000549741
0.00177033
-0.000687933
0.000967703
-0.00126039
0.0012533
-0.00380688
-0.000887434
-0.00299162
-0.000647376
-0.0022263
0.000696538
-0.00494942
-0.0053457
-0.00659371
-0.00512776
-0.00537041
-0.00620543
-0.00717415
-0.00599772
-0.00576027
-0.00918997
-0.0111109
-0.0107673
-0.00847926
-0.00099454
0.00118272
0.00328104
0.00320258
0.00420469
0.00319713
0.00269681
0.00255929
-0.000775834
0.00010947
-0.00274537
-0.00124907
-0.00135264
-0.00186229
-0.00208403
-0.00180624
-0.00237266
-0.00116691
-0.00134908
0.000593714
0.000695558
0.00254142
0.00235506
0.00413182
0.00414733
0.00587398
0.00664168
0.0103288
-0.00325005
-0.00437463
-0.00518719
-0.00631745
-0.00496957
-0.00485851
-0.00459142
-0.00346892
-0.000835007
0.000620811
-0.000761191
-0.000840804
0.000147395
-0.00141228
0.000474012
-0.00118225
-0.00116084
-0.00107503
-0.00204823
-0.000568443
-0.00188959
-0.000886193
-0.0014517
-0.000738681
-0.000414566
-0.000424961
0.000212985
9.3846e-05
0.000551962
4.85659e-05
0.000173565
0.000120046
2.7847e-05
1.94316e-05
0.000165404
-0.000870347
-0.000523124
-0.000468016
-0.000221073
-0.000228896
0.000317183
-0.00640448
-0.00176173
-0.00355071
-0.000704313
-0.000273578
-0.00165525
-0.00124126
6.10175e-05
0.000866337
-9.33081e-05
-0.00130317
-0.00227472
-0.00315227
-0.00236455
-0.00147381
-0.000798434
-7.33257e-05
0.000520197
0.00068824
0.000964429
0.000683308
8.84922e-05
-0.000148811
-0.000521953
-0.000646411
-0.000791776
-0.000782658
-0.000785223
-0.000757316
-0.000877285
-0.000557659
-0.000361028
7.74823e-06
0.000210167
0.000485747
0.000583842
0.000998752
0.00129662
0.00167859
0.00196022
0.00206233
0.00175637
-0.00109824
0.00215999
0.00191369
-0.000546446
-0.000254874
-0.00119053
-0.00091306
-0.000578775
-0.000417052
-0.000855689
-0.00123157
-0.00111028
-0.00118343
-0.000562883
-0.000627232
-0.000427715
-0.00045289
-0.000618154
-0.000283613
-0.000768816
-0.000316426
-0.000541581
-0.000166475
-0.000349529
-0.000368892
-0.000144972
-4.53894e-05
-2.35511e-05
-8.35184e-05
-5.69183e-05
9.41713e-05
2.37691e-06
0.000106753
0.000138338
3.15259e-05
8.05609e-05
0.000237405
0.000328222
0.00038835
0.000435375
-0.00360699
0.00201309
0.00247408
-0.000142437
0.00140606
-0.00102043
-0.000361674
0.000396189
0.000799054
0.00110246
0.000334786
0.00060352
-0.000609205
-0.000807647
-0.000806579
-0.000808004
-0.000737429
-0.000611175
-0.00039968
-0.000276222
-0.000122032
-0.000160863
-0.000113309
-0.000200589
-0.000268318
-0.000335998
-0.000194633
-0.000166289
-0.000146398
-0.000183876
-5.94307e-05
-5.15895e-05
-2.25982e-06
1.77225e-05
2.28469e-05
-1.60733e-05
1.54284e-05
2.92813e-05
5.42498e-05
2.19426e-05
-0.000199713
0.00106903
0.0024967
-0.000282586
0.0021559
-0.000500037
0.000698742
0.00126321
0.00128977
0.00192925
0.00100264
0.00160649
0.000157537
4.16066e-05
-0.000489609
-0.000618331
-0.000610356
-0.000525383
-0.000511978
-0.000443242
-0.000311388
-0.000350948
-0.000201519
-0.000214483
-0.000146317
-0.000259914
-0.000205725
-0.000158135
-6.4535e-05
-9.47901e-05
-4.31272e-05
-3.13617e-05
4.74719e-05
1.96846e-05
8.99231e-05
8.94631e-05
0.000103962
8.60884e-05
0.000128449
0.000110757
6.01208e-05
-2.47238e-05
0.000631128
-0.0003226
0.00111939
-0.000482298
0.000509898
0.000927584
0.000922884
0.00148692
0.000981593
0.0014788
0.000550874
0.00082689
6.83219e-05
-3.46812e-05
-0.000299699
-0.00016705
-0.000480093
-0.000267413
-0.000413343
-0.000383053
-0.000303844
-0.000209378
-0.00015404
-0.000129829
-0.000173554
-0.000206718
5.67269e-05
-0.000134323
0.000106001
-0.000133261
0.000162429
-0.000134919
0.000142266
-0.000106294
0.000126058
-0.000136731
3.90268e-05
-0.000138864
-3.3629e-05
-0.000157242
-0.000158815
-9.65084e-05
4.85407e-05
-0.000371237
-0.000235579
-5.03789e-05
9.21111e-05
0.000211863
0.000288791
0.000435452
0.000219521
0.000755879
0.000227256
0.000459962
-1.25313e-05
0.000257111
-0.000269207
6.18668e-05
-0.000288343
-0.000178443
-0.000291919
-0.000239803
-0.000213296
-0.000142368
-0.000159342
-0.000257994
-1.87297e-05
-0.000206626
0.000126214
-0.000201825
0.000201257
-0.000250349
0.000189069
-0.000289973
0.000156217
-0.000347829
1.73785e-05
-0.000396765
-0.000138187
-0.00040101
-0.000300632
-0.000448901
-0.000387445
-0.00022892
-0.000320668
-0.000528427
-0.000431908
-0.00058196
-0.000453282
-0.000407931
-0.000401401
7.94652e-05
-7.47854e-05
0.00041539
8.99656e-05
0.000339226
-5.13644e-05
0.000162016
-0.000108677
2.38662e-05
-0.00014706
-0.000126435
-0.000191779
-0.000108208
-0.000148722
-0.000146391
-0.000226146
-0.000203118
-2.32679e-05
-0.00015593
5.93637e-05
-0.000184151
8.24717e-05
-0.00023355
7.15782e-05
-0.000284413
4.81038e-06
-0.000340736
-0.000122081
-0.000357624
-0.000249697
-0.000355485
-0.000383825
-0.000339872
-6.85057e-05
-0.000209123
-0.000313088
-0.000298644
-0.000469884
-0.000375353
-0.000486568
-0.000386759
-0.000306699
-8.33799e-05
-2.02865e-06
4.9407e-05
1.95575e-06
2.88247e-05
-4.53905e-05
9.04705e-05
-3.14063e-05
4.49784e-05
-0.000110584
-7.7085e-06
-0.00011874
-3.13382e-05
-0.000210073
-0.000247585
-0.000337686
-0.000177661
-0.000111398
-0.000119273
-6.81803e-05
-0.000109742
-6.48465e-05
-0.000106599
-5.56394e-05
-0.000109203
-8.03031e-05
-0.000107894
-9.64426e-05
-9.34109e-05
-0.000123575
-9.08888e-05
-0.000309864
7.62799e-08
-9.8809e-05
-0.000111225
-0.000140158
-0.000246354
-0.000183196
-0.000330474
-0.000217287
-0.000323923
-0.000171829
-0.000186268
-0.000129589
-0.000100146
-0.000114877
1.69396e-05
-3.83798e-05
9.20061e-05
-5.17897e-05
3.431e-05
-9.12362e-05
7.39022e-06
-0.000146029
-0.000109533
-0.000273737
-0.000380961
-0.0001348
-0.000248049
-4.84734e-05
-0.000193837
-1.43753e-05
-0.000149033
1.14137e-05
-9.66976e-05
3.44384e-05
-4.63153e-05
6.27886e-05
-3.09328e-06
9.18556e-05
2.58647e-05
0.000106589
-0.000182068
6.08984e-05
-7.63701e-05
-1.85469e-05
-8.95735e-05
-0.000111336
-9.94962e-05
-0.000200084
-0.000111606
-0.000238786
-0.000115478
-0.00020242
-0.00011367
-0.000148932
-0.00010349
-8.144e-05
-2.58217e-05
-3.60235e-05
-2.00344e-05
-6.59745e-05
-4.53284e-05
-6.76111e-05
-3.77164e-05
-0.000174499
-0.000296923
-0.000232523
-0.000394301
2.81232e-05
-0.000355482
0.000124399
-0.000334275
0.000171799
-0.000298691
0.000195873
-0.000237753
0.000193606
-0.000153209
0.00016748
-5.71056e-05
0.000128202
3.10907e-05
-0.00015155
5.1026e-05
-4.8163e-05
1.32625e-05
-6.50593e-05
-3.71931e-05
-6.42451e-05
-9.46645e-05
-5.87704e-05
-0.000135
-5.34916e-05
-0.000144564
-5.74169e-05
-0.000124229
-5.8327e-05
-0.000105029
-4.96814e-05
-7.27406e-05
-6.21202e-05
-7.90525e-05
-6.84844e-05
5.28605e-06
-0.000153199
-8.82035e-05
-0.000211899
-0.000328267
-0.00030814
-0.000228504
-4.18711e-05
-0.000178827
1.97052e-05
-0.000150384
4.97999e-05
-0.000116732
7.73823e-05
-7.39137e-05
8.31974e-05
-2.51631e-05
8.29987e-05
1.87035e-05
7.02613e-05
-8.66149e-05
5.62497e-05
-4.27965e-05
2.97337e-05
-4.82381e-05
3.23332e-06
-4.30765e-05
-3.156e-05
-3.56259e-05
-6.40092e-05
-3.06312e-05
-8.48722e-05
-2.86115e-05
-9.13781e-05
-3.26407e-05
-7.80051e-05
-3.97502e-05
-7.82674e-05
-4.97541e-05
-9.09856e-05
-4.76102e-05
-0.000109157
4.03145e-05
-0.000230525
-4.97361e-06
-0.000373886
-0.000131607
-0.00018986
-3.33811e-05
-0.000137651
1.24917e-05
-0.000117858
3.66793e-05
-9.47562e-05
5.22346e-05
-6.88686e-05
6.09569e-05
-3.89058e-05
6.39636e-05
-1.63527e-05
6.10366e-05
-4.68432e-05
2.90198e-05
-2.47921e-05
1.43563e-05
-3.83936e-05
5.84614e-07
-4.05051e-05
-1.61758e-05
-3.722e-05
-3.30348e-05
-3.16484e-05
-4.49421e-05
-2.70235e-05
-4.88109e-05
-1.81856e-05
-5.81213e-05
-2.18992e-05
-5.71046e-05
-3.48735e-05
-5.24987e-05
-2.45542e-05
5.15768e-05
-0.000103617
2.43103e-05
-0.000154486
-0.00015686
-0.000163159
-0.000208479
3.18763e-05
-0.000190723
6.31354e-05
-0.000178563
7.12087e-05
-0.000167163
6.74172e-05
-0.000152742
5.73794e-05
-0.000133823
4.5059e-05
-0.00011653
3.08835e-05
-1.89559e-05
2.474e-05
-2.03952e-05
1.2271e-05
-2.62698e-05
5.69467e-06
-2.68818e-05
-1.46101e-06
-2.44624e-05
-9.1844e-06
-1.99646e-05
-1.66905e-05
-1.36624e-05
-2.47009e-05
-1.20663e-05
-2.2519e-05
-8.84285e-06
-2.31512e-05
-4.93217e-06
-2.44249e-05
1.55064e-06
-7.55742e-05
0.000118904
-0.000162341
2.61734e-06
-0.000108175
-9.84572e-05
-0.000130363
-0.000100755
9.08423e-07
-9.31987e-05
1.44496e-05
-8.87252e-05
2.07468e-05
-8.34228e-05
2.34226e-05
-7.68706e-05
2.34343e-05
-7.03826e-05
2.55002e-05
-6.85263e-05
2.30762e-05
-1.47861e-05
8.5856e-06
-1.44295e-05
-4.81441e-06
-1.17406e-05
-1.04461e-05
-1.07034e-05
-1.14539e-05
-1.00084e-05
-8.80921e-06
-9.6419e-06
-5.5102e-06
-7.84839e-06
1.12227e-06
-1.07776e-05
5.53937e-06
-1.18223e-05
2.02032e-06
-1.18271e-05
-7.64491e-06
7.78581e-05
-9.52258e-05
0.000141529
-9.25124e-05
0.00011168
-0.000176519
0.000125929
-0.00011005
3.31648e-05
-0.000103592
3.60473e-05
-0.000107518
3.29789e-05
-0.000109998
2.7959e-05
-0.000110317
2.34518e-05
-0.00010903
1.7351e-05
-0.000108675
-6.63706e-05
3.61788e-05
-4.00051e-05
2.77686e-05
-4.66789e-05
2.40695e-05
-4.73791e-05
2.19549e-05
-4.31172e-05
1.97751e-05
-3.53456e-05
1.6368e-05
-2.52744e-05
9.36426e-06
-1.52382e-05
-3.06917e-07
-7.05546e-06
-1.47947e-05
7.54726e-07
-3.81813e-05
5.70618e-06
-0.00012661
6.04964e-05
-0.000105784
9.05556e-05
-3.45966e-05
8.18888e-05
-0.000152438
6.15835e-05
-7.7931e-05
-7.42414e-06
-7.52752e-05
-7.27767e-06
-7.69728e-05
-3.45445e-06
-7.46229e-05
1.68046e-06
-7.18563e-05
2.52318e-06
-7.1776e-05
1.27377e-05
2.98892e-05
-5.72925e-06
6.84906e-06
-1.76978e-05
-4.17535e-06
-2.38253e-05
-8.54393e-06
-2.75362e-05
-1.05001e-05
-2.71102e-05
-1.16275e-05
-2.63409e-05
-1.30104e-05
-2.23032e-05
-1.7232e-05
-2.16182e-05
-2.30968e-05
-2.21906e-05
-3.58093e-05
-1.79442e-05
-8.25848e-05
2.26644e-05
-8.32685e-05
7.81203e-05
-6.06906e-05
1.0059e-05
-7.47984e-05
-3.31637e-05
-0.000100113
-6.46612e-05
-2.06421e-05
-6.73401e-05
-1.80415e-05
-6.85117e-05
-1.41273e-05
-6.81904e-05
-9.87917e-06
-6.36963e-05
-4.63126e-06
-6.22298e-05
7.40587e-06
-4.73147e-05
1.87664e-05
-1.25119e-05
1.60057e-06
-1.63422e-05
-8.43841e-06
-1.82597e-05
-1.4406e-05
-1.76287e-05
-1.74115e-05
-1.74303e-05
-1.84442e-05
-1.79466e-05
-1.86605e-05
-1.86233e-05
-1.93531e-05
-2.64141e-05
-2.37635e-05
-2.67853e-05
-2.82773e-05
1.48752e-05
-2.4595e-05
6.34299e-05
-7.00916e-05
4.66247e-05
-8.04685e-05
5.71899e-05
-0.000106218
5.86574e-05
-5.57834e-05
1.04029e-05
-5.58932e-05
8.10312e-06
-6.26237e-05
2.27357e-06
-6.53283e-05
9.81317e-07
-6.35721e-05
6.82603e-06
-6.07372e-05
1.10986e-05
2.8936e-05
-1.48301e-05
1.88559e-05
-1.96884e-05
1.09307e-05
-2.72979e-05
8.01575e-06
-3.02434e-05
6.60011e-06
-3.03575e-05
5.1471e-06
-2.84494e-05
2.09171e-06
-2.3422e-05
-4.77546e-06
-2.26944e-05
-1.37424e-05
-2.32024e-05
-2.08073e-05
-1.58332e-05
-2.67098e-05
3.03016e-06
-8.25891e-05
1.82164e-05
-7.65677e-05
3.79538e-05
-2.42037e-05
4.4102e-05
-8.23328e-05
3.48401e-05
-4.58065e-05
-9.29082e-06
-4.55967e-05
-1.14133e-05
-4.95546e-05
-1.29557e-05
-5.03179e-05
-1.12667e-05
-4.86116e-05
-6.59386e-06
-4.73559e-05
-3.74239e-05
1.84359e-05
-1.23199e-07
5.00284e-06
-7.62675e-06
-1.76726e-06
-1.22553e-05
-4.38312e-06
-1.41838e-05
-5.70292e-06
-1.58781e-05
-7.1273e-06
-1.58246e-05
-9.92346e-06
-1.68699e-05
-1.26264e-05
-1.69818e-05
-1.51626e-05
-1.39834e-05
-1.85249e-05
-8.74906e-06
-5.16896e-05
1.80188e-05
-5.82478e-05
4.29913e-05
-6.64125e-05
-6.8253e-06
-9.34506e-05
-3.69215e-05
-0.000118767
-5.00647e-05
-9.57859e-06
-4.53525e-05
-2.68191e-06
-4.38676e-05
-7.83313e-07
-4.28026e-05
5.36189e-07
-4.12353e-05
2.32372e-06
-3.8225e-05
2.92251e-05
-3.59747e-06
1.4141e-05
-4.11316e-06
3.4891e-06
-7.36138e-06
-1.81592e-06
-7.81922e-06
-4.98919e-06
-7.7534e-06
-7.25264e-06
-7.87173e-06
-9.17666e-06
-8.08518e-06
-9.66914e-06
-9.50512e-06
-8.91288e-06
-9.48977e-06
-8.55773e-06
-7.96601e-06
-9.75699e-06
1.78807e-05
-9.57882e-06
4.73882e-05
-6.04866e-05
4.07571e-05
-0.000115443
-2.29701e-05
-8.17091e-05
-1.40146e-05
-9.48496e-05
-3.50363e-05
-1.42963e-05
-3.58566e-05
-1.14517e-05
-3.46893e-05
-9.01727e-06
-3.29656e-05
-5.91912e-06
-3.15465e-05
-1.48939e-06
-3.07027e-05
1.99171e-05
-5.40767e-06
1.14774e-05
-8.5921e-06
7.13043e-06
-1.27716e-05
5.82183e-06
-1.43442e-05
5.06234e-06
-1.46682e-05
3.93771e-06
-1.38536e-05
1.91759e-06
-1.22732e-05
-6.62794e-07
-9.78886e-06
-4.65296e-06
-8.25753e-06
-8.18042e-06
-6.35245e-06
-1.44085e-05
3.67554e-06
-6.26581e-05
1.87968e-05
-0.000112936
1.80576e-05
-7.13148e-05
2.29048e-05
-7.18916e-05
1.72573e-05
-2.16348e-05
1.82106e-06
-1.93591e-05
7.01535e-07
-2.04588e-05
1.69473e-08
-2.08466e-05
2.86436e-07
-2.1587e-05
2.4933e-06
2.44006e-05
-5.41883e-06
1.17955e-05
5.98832e-07
3.07981e-06
-3.59779e-06
-6.34807e-07
-6.04885e-06
-2.10933e-06
-7.26019e-06
-3.06642e-06
-8.41544e-06
-4.06804e-06
-8.883e-06
-5.64445e-06
-1.00781e-05
-8.33108e-06
-1.04643e-05
-1.09628e-05
-1.12204e-05
-1.37037e-05
-8.90061e-06
-4.09534e-05
1.75153e-05
-8.78239e-05
4.30469e-05
-8.81931e-05
2.88154e-06
-7.23931e-05
3.95298e-06
-8.5296e-05
-2.6244e-05
-1.21133e-05
-2.62082e-05
-6.28989e-06
-2.30917e-05
-2.3516e-06
-2.14967e-05
-6.0797e-07
-2.06737e-05
1.17247e-06
-1.73593e-05
1.26811e-05
-2.6596e-06
6.87471e-06
-2.83832e-06
1.05619e-06
-4.64282e-06
-1.87086e-06
-4.83314e-06
-3.86813e-06
-4.82583e-06
-5.53379e-06
-5.5701e-06
-6.75169e-06
-6.80561e-06
-8.2746e-06
-8.5899e-06
-8.89996e-06
-9.0996e-06
-8.28645e-06
-9.14175e-06
-8.4773e-06
1.73622e-05
-4.1475e-05
4.67169e-05
-7.03426e-05
3.91751e-05
-6.49997e-05
-5.40314e-06
-5.58902e-05
5.50396e-07
-7.06677e-05
-1.88301e-05
-7.84215e-06
-1.46572e-05
-1.96026e-06
-1.19765e-05
1.28941e-06
-1.05201e-05
2.50899e-06
-1.11482e-05
1.42187e-05
-7.75769e-06
1.02323e-05
-4.01727e-06
4.53897e-06
-5.79975e-06
2.04624e-06
-8.03484e-06
9.36638e-07
-8.89625e-06
-2.75861e-07
-9.84566e-06
-1.50048e-06
-9.76635e-06
-3.3145e-06
-9.2079e-06
-4.74651e-06
-7.77506e-06
-6.05921e-06
-5.41708e-06
-9.87388e-06
-5.70957e-07
-4.48238e-05
2.02495e-05
-7.63207e-05
3.90944e-05
-7.08869e-05
3.25586e-05
-4.25953e-05
2.49266e-05
-5.59039e-05
9.17075e-06
-1.80542e-05
-5.00448e-06
-1.26297e-05
-3.44897e-06
-1.19961e-05
-2.45507e-06
-1.14045e-05
-1.90189e-06
-1.17016e-05
-1.27345e-05
8.25246e-06
-4.07628e-06
5.04536e-06
-1.07558e-06
-2.13366e-07
-3.69502e-06
-2.49431e-06
-5.18006e-06
-4.07248e-06
-6.75729e-06
-4.83287e-06
-7.93214e-06
-6.4674e-06
-8.45746e-06
-7.82385e-06
-1.02453e-05
-8.78593e-06
-9.39547e-06
-1.10742e-05
-7.10657e-06
-2.80748e-05
8.0893e-06
-5.55015e-05
2.60476e-05
-5.87352e-05
3.54667e-05
-5.04387e-05
8.01657e-06
-4.53356e-05
9.8579e-06
-5.50048e-05
-9.63222e-06
-4.05548e-06
-7.99415e-06
6.09193e-07
-6.13024e-06
2.68239e-06
-5.48538e-06
2.70947e-06
-6.06516e-06
8.42725e-06
-5.52049e-06
7.05254e-06
-2.39731e-06
2.08587e-06
-2.84078e-06
-1.39724e-06
-3.80358e-06
-3.34857e-06
-4.2067e-06
-4.65183e-06
-5.31494e-06
-5.93372e-06
-5.78698e-06
-7.05566e-06
-7.12187e-06
-7.24331e-06
-8.96311e-06
-8.57863e-06
-7.89104e-06
-7.80225e-06
1.09348e-05
-2.69545e-05
3.26215e-05
-4.73407e-05
3.56452e-05
-5.10142e-05
3.69014e-05
-4.26403e-05
7.64963e-06
-3.54777e-05
1.96037e-05
-3.27163e-05
4.20251e-09
2.37765e-06
-1.12734e-06
3.08711e-06
-1.23481e-06
3.06061e-06
-1.69306e-06
2.64426e-06
-8.70648e-06
5.78736e-06
-4.56304e-06
5.15759e-06
-3.04145e-06
1.2207e-06
-3.47842e-06
-9.55748e-08
-4.27908e-06
-1.0018e-06
-5.01426e-06
-1.63166e-06
-4.93085e-06
-2.73117e-06
-5.02092e-06
-2.98954e-06
-5.06477e-06
-2.95085e-06
-2.48947e-06
-3.65826e-06
2.52965e-06
-2.2706e-05
1.56961e-05
-4.20032e-05
2.67726e-05
-4.19758e-05
3.1416e-05
-4.20943e-05
2.50567e-05
-1.67253e-05
2.59171e-05
-1.97213e-05
3.21066e-05
1.62191e-06
6.74829e-06
7.54567e-07
4.03924e-06
-1.26331e-06
1.824e-06
-2.57111e-06
5.21818e-07
5.05591e-06
-3.76926e-06
5.73584e-06
-2.41367e-06
2.64336e-06
4.23524e-08
2.6552e-07
-1.07977e-06
-6.57902e-07
-1.78614e-06
-1.00954e-06
-2.1092e-06
-1.73785e-06
-2.45704e-06
-1.47131e-06
-2.52757e-06
-6.35112e-07
-1.73935e-07
-2.30875e-07
2.24156e-06
-1.026e-05
1.38948e-05
-2.75536e-05
2.54065e-05
-3.24789e-05
2.82133e-05
-3.75707e-05
3.17578e-05
-2.88725e-05
1.43409e-05
-2.08055e-05
2.07363e-05
-1.61933e-05
1.21266e-06
8.8383e-07
-8.69223e-07
8.93238e-07
-7.76971e-07
1.29981e-06
-6.11308e-07
1.22833e-06
-5.42231e-06
4.48798e-06
-2.47534e-06
4.86343e-06
1.12584e-06
1.32847e-06
7.6213e-07
2.5773e-07
1.721e-07
-2.06754e-07
-2.99007e-07
-6.17255e-07
-9.16019e-09
-7.5476e-07
-6.06762e-07
6.27772e-08
-1.3404e-07
7.39957e-07
1.1722e-06
1.24223e-06
1.26915e-05
-9.86201e-06
2.78633e-05
-2.17211e-05
2.69903e-05
-2.84375e-05
2.59369e-05
-2.75566e-05
2.18611e-05
-5.06016e-06
2.4239e-05
-9.76712e-06
3.05243e-05
8.98708e-07
3.56984e-06
-9.98568e-07
7.17293e-08
-2.61854e-06
-1.8994e-06
-2.88657e-06
-2.48972e-06
3.33123e-06
-2.00491e-06
5.11714e-06
-4.0066e-08
2.30481e-06
1.80457e-06
9.4333e-07
7.54673e-07
7.48743e-07
3.50017e-07
8.53788e-07
3.04746e-07
4.29646e-07
-1.48643e-08
7.70152e-07
7.55504e-10
1.57409e-06
2.11824e-06
1.98759e-06
3.43325e-06
-5.67323e-06
1.43108e-05
-1.54599e-05
2.44728e-05
-1.9643e-05
2.36762e-05
-2.40686e-05
2.10777e-05
-5.36038e-06
2.30631e-05
1.42381e-05
1.9683e-05
3.90368e-06
2.98469e-05
4.6302e-06
6.52742e-06
2.84745e-06
4.14434e-06
1.53025e-06
2.32196e-06
5.64619e-07
-3.17259e-06
3.60398e-06
-8.31327e-07
3.49172e-06
2.20647e-06
5.55911e-07
1.43648e-06
7.75476e-07
1.09021e-06
9.37121e-07
8.57485e-07
9.49333e-07
7.40613e-07
1.27187e-06
3.7663e-07
1.63206e-06
6.01759e-07
2.16658e-06
1.03019e-06
1.87595e-06
9.33493e-06
-2.49824e-06
2.44739e-05
-1.01845e-05
2.43035e-05
-1.63502e-05
1.93327e-05
-5.89409e-06
2.13793e-05
-3.60183e-06
8.15047e-06
-1.50677e-05
5.47003e-06
-1.64935e-05
-6.16343e-07
-1.35129e-07
2.94658e-07
1.29022e-06
1.37698e-06
1.82741e-06
1.72515e-06
2.41006e-06
-8.4076e-07
3.9126e-06
9.66678e-07
1.29272e-06
2.01313e-06
1.00914e-06
1.21177e-06
9.92757e-07
1.12867e-06
1.03685e-06
1.15754e-06
1.20085e-06
7.60193e-07
1.16872e-06
8.9279e-07
1.19181e-06
1.21988e-06
2.42959e-06
1.59993e-06
2.16354e-06
1.3215e-05
-3.91906e-06
2.36946e-05
-1.13725e-05
1.87873e-05
-4.80938e-06
1.84542e-05
-1.00217e-05
1.20312e-05
-1.24114e-05
1.32088e-05
-1.24614e-05
1.69683e-05
3.07284e-06
6.07475e-06
4.08147e-06
5.01926e-06
3.61611e-06
3.89296e-06
2.8024e-06
-1.62548e-06
2.96787e-06
-5.07929e-08
2.7867e-06
2.10904e-06
9.78382e-07
1.27528e-06
8.86599e-07
1.16465e-06
9.62189e-07
1.26205e-06
9.07384e-07
1.2177e-06
1.23761e-06
1.36729e-06
9.88737e-07
1.97336e-06
1.26474e-06
1.94533e-06
1.21934e-06
2.93976e-06
-4.67729e-06
1.1096e-05
-1.13768e-05
1.56304e-05
-2.90397e-06
1.59521e-05
-7.9427e-06
1.63628e-05
-1.82805e-05
2.5334e-06
-1.6044e-05
5.76566e-06
-1.97382e-05
-2.96926e-06
-3.35624e-06
-2.46093e-06
-1.9436e-06
-1.33623e-06
-1.15187e-06
-4.53977e-07
1.90738e-06
-2.12125e-07
3.07063e-06
1.07613e-06
1.42391e-06
1.55755e-06
7.19182e-07
1.17824e-06
5.28481e-07
1.29514e-06
6.29179e-07
1.38127e-06
9.49057e-07
1.01528e-06
1.0679e-06
1.10009e-06
1.31688e-06
1.26391e-06
2.30152e-06
1.28689e-06
1.72948e-06
7.87926e-06
-3.97485e-06
1.46755e-05
-1.99939e-06
1.39041e-05
-6.61099e-06
1.50025e-05
-2.07894e-05
9.68693e-06
-1.04996e-05
1.12094e-05
-1.2099e-05
1.18978e-05
6.057e-07
2.97651e-06
1.72461e-06
2.3517e-06
1.42392e-06
1.49493e-06
9.72918e-07
-6.39369e-07
2.25839e-06
2.75032e-07
2.27545e-06
1.60986e-06
1.01245e-06
9.09192e-07
3.71519e-07
1.22467e-06
2.14126e-07
1.64212e-06
7.03549e-08
1.83736e-06
1.29781e-07
2.26518e-06
1.99206e-07
2.89765e-06
5.0196e-07
3.15034e-06
-3.50198e-07
3.33665e-06
-6.21903e-06
6.33008e-06
-5.18552e-06
9.68439e-06
-5.89233e-06
1.07939e-05
-1.64485e-05
1.42641e-05
-1.30928e-05
6.27886e-06
-1.3386e-05
8.00221e-06
-1.44334e-05
-1.55261e-07
-6.10224e-07
4.0034e-07
7.3935e-07
1.67735e-06
1.55219e-06
2.37335e-06
1.42674e-06
2.01904e-07
2.34685e-06
1.00174e-06
1.58693e-06
1.08516e-06
9.44896e-07
7.15589e-07
6.41436e-07
7.95864e-07
6.38307e-07
9.43276e-07
7.4221e-07
1.22906e-06
8.30575e-07
1.82909e-06
1.11229e-06
2.01948e-06
9.39529e-07
2.7594e-06
-2.45012e-06
5.15414e-06
-2.68351e-06
7.45944e-06
-5.59827e-06
8.24166e-06
-1.59594e-05
1.06217e-05
-1.84964e-05
1.26419e-05
-1.5977e-05
2.84489e-06
-1.38082e-05
1.01116e-05
-1.14597e-05
4.33323e-06
3.72135e-06
5.23616e-06
4.75172e-06
6.08955e-06
4.20135e-06
-3.95033e-08
1.83191e-06
3.61367e-07
2.04462e-06
1.32635e-06
1.21723e-06
6.44976e-07
8.03175e-07
6.89473e-07
8.14626e-07
6.47973e-07
1.03806e-06
5.63604e-07
1.33478e-06
6.86634e-07
1.79179e-06
6.07053e-07
2.43357e-06
8.17676e-07
1.92117e-06
4.96773e-06
2.13965e-06
9.35078e-06
-9.46237e-07
1.02355e-05
-6.79372e-06
1.38881e-05
-6.4301e-06
2.02256e-05
-5.81389e-06
2.18991e-05
4.32266e-06
2.0649e-05
-5.32692e-07
3.03635e-05
6.55689e-06
6.53457e-06
5.51169e-06
4.71423e-06
4.83864e-06
2.94836e-06
1.07323e-06
1.70773e-07
1.64695e-06
3.65707e-07
1.33042e-06
8.27302e-07
1.18754e-06
9.38421e-07
9.8005e-07
1.09697e-06
8.82697e-07
1.21535e-06
7.92966e-07
1.53902e-06
5.62734e-07
1.89534e-06
6.38032e-07
1.8031e-06
1.02575e-06
2.11907e-06
1.08663e-06
3.55883e-06
-2.83108e-06
5.66974e-06
-9.43426e-06
7.24855e-06
-1.37756e-05
8.88088e-06
-1.76058e-05
1.0528e-05
-1.7777e-05
1.02378e-06
-1.68547e-05
6.66853e-06
-1.92689e-05
1.49714e-06
6.6802e-07
3.61513e-06
2.27716e-06
5.10799e-06
2.20661e-06
3.04058e-07
1.19573e-06
4.12464e-07
1.99349e-06
1.08245e-06
1.88986e-06
1.0845e-06
1.82709e-06
1.54467e-06
1.8267e-06
1.50454e-06
1.89975e-06
1.23197e-06
2.01834e-06
1.05854e-06
2.36128e-06
4.65634e-07
2.70818e-06
-4.86444e-07
2.62095e-06
-9.64663e-07
1.87921e-06
5.68856e-06
1.97177e-06
1.58004e-05
6.0559e-06
2.3476e-05
1.13206e-05
3.28968e-05
1.86873e-05
4.27695e-05
2.8887e-05
3.50701e-05
1.23724e-05
5.21927e-05
8.7703e-06
6.43982e-06
5.25019e-06
3.52837e-06
4.18307e-06
2.11955e-06
9.24568e-07
1.14584e-06
2.33331e-06
1.46103e-06
2.70055e-06
1.89405e-06
2.90492e-06
2.16664e-06
2.58969e-06
2.42538e-06
2.33428e-06
2.59767e-06
1.9824e-06
2.78548e-06
1.32542e-06
2.5722e-06
8.40873e-07
1.9837e-06
1.05523e-06
2.16544e-06
5.94807e-07
3.87304e-06
-4.93914e-06
2.80005e-06
-1.04318e-05
-7.30346e-07
-1.46193e-05
-2.68703e-06
-1.98289e-05
-9.16968e-06
-1.27273e-05
-7.9808e-06
2.78412e-06
-1.34929e-06
8.41543e-06
4.95865e-06
6.71588e-06
6.68498e-06
5.55149e-06
6.99647e-06
3.16882e-06
9.32717e-07
1.68061e-06
1.678e-06
2.43964e-06
2.36507e-06
3.00584e-06
2.18641e-06
2.83711e-06
2.11406e-06
2.95248e-06
2.068e-06
3.24423e-06
1.79928e-06
3.54787e-06
1.23631e-06
3.7505e-06
1.48516e-07
4.21502e-06
-1.58516e-06
4.70997e-06
-2.06064e-06
3.30108e-06
5.26118e-06
1.55231e-05
2.49539e-05
4.30682e-05
4.95763e-05
6.25385e-05
6.8331e-05
8.66176e-05
7.38044e-05
6.75984e-05
3.59678e-05
0.000108501
1.69448e-05
1.443e-05
8.57629e-06
9.25805e-06
6.18741e-06
8.06512e-06
5.88467e-06
3.57943e-07
3.81958e-07
5.55821e-07
6.89577e-07
8.95909e-07
8.04763e-07
1.03704e-06
9.14987e-07
1.24309e-06
1.10401e-06
1.51052e-06
1.30056e-06
1.86409e-06
1.41269e-06
2.19067e-06
1.43157e-06
2.64612e-06
1.54423e-06
3.28171e-06
1.88879e-06
3.97463e-06
1.03501e-06
5.53945e-06
-4.1235e-06
8.4353e-07
-1.47202e-05
-1.32608e-05
-2.7459e-05
-2.41015e-05
-4.59e-05
-3.38712e-05
-4.04655e-05
-1.46005e-05
-5.74136e-05
-5.03217e-06
-8.75902e-07
8.12903e-07
2.97731e-06
3.5778e-06
3.7223e-06
4.14002e-06
0.0477857
0.00615087
0.00735681
-0.000821534
-0.0360727
0.00765027
-0.0170203
-0.000615884
-0.00515395
0.000766726
-0.00177462
-0.000167524
-0.00119881
-0.000963417
-0.000981575
-0.000509875
0.00123717
0.000758067
0.00216643
0.00212763
0.00136982
0.00164187
0.000917888
0.00135399
0.000747672
0.000878352
0.000833548
-0.000363031
-0.000401795
5.01087e-05
-0.000383536
3.33091e-05
-0.000337975
-0.000212925
-0.000267259
-2.4725e-05
-0.000249446
-5.84091e-05
-0.000176548
-0.000153709
-0.000165111
-4.86338e-05
-0.000118678
4.73319e-05
-0.000151754
0.000145544
0.000197226
0.000132996
0.000174009
9.66686e-05
0.000165149
5.3962e-06
8.49424e-05
4.86024e-05
4.4463e-05
6.05857e-05
7.50163e-05
-5.38462e-05
-2.75433e-06
-1.54043e-05
-7.0581e-05
6.22477e-05
2.57934e-05
3.93006e-05
-1.70945e-05
-1.21487e-05
-3.89842e-06
2.10944e-06
-4.8899e-06
4.20808e-06
1.16031e-05
-2.40125e-08
-3.17609e-06
-1.13098e-05
0.0288682
0.0147646
0.00610825
0.000500676
-0.00626012
-3.98034e-05
-0.00308087
-0.000883179
-0.000771886
6.63573e-05
-0.000165488
-4.00305e-05
-0.000137316
-1.33623e-05
-1.73482e-06
4.78307e-05
-0.00208279
-0.000641624
-0.00119885
-0.00078101
-0.000989749
-0.00040017
-0.00122139
-0.000554961
-0.000963359
-0.000899272
-0.000844993
0.000418949
0.000371878
0.000385058
0.000352376
0.000308922
0.000260884
0.000243592
0.000182585
0.000211344
0.000175488
0.000180819
0.000159282
0.000140626
0.000128929
0.00011558
0.000106816
0.000139456
9.1137e-05
-0.000118121
-2.63788e-05
-6.88835e-05
2.67831e-05
-8.60662e-05
3.15744e-05
-0.000132963
-3.58501e-05
-4.99394e-05
-3.41608e-05
-1.62072e-05
3.51196e-05
1.08838e-05
1.26384e-05
3.30691e-06
2.15731e-06
2.11105e-05
2.79399e-05
4.30502e-05
7.44481e-06
-3.39245e-06
-6.82757e-06
5.69639e-07
1.06083e-07
1.20449e-05
1.58295e-05
5.58238e-06
-6.40391e-07
-3.78559e-06
-0.000796182
-0.000206038
-0.000772842
-0.00110336
-0.00458602
-0.00155739
-0.00209376
-0.00138599
-0.0011673
-0.000779247
-0.000913285
-0.000772849
-0.000852786
-0.00069237
-0.000719895
-0.000764923
0.000146828
-0.000224871
0.00095138
0.000804148
0.000589414
0.000542226
0.000537223
0.000501579
0.000480095
0.000420826
0.000410024
-0.000231325
-0.000169767
-0.000146453
-0.000114503
-0.000111817
-0.000103603
-9.33718e-05
-0.000130546
-6.42447e-05
-7.77508e-05
-5.35886e-05
-6.5966e-05
-5.94044e-05
-6.28903e-05
-3.62531e-05
-4.13261e-05
-1.37774e-05
-4.04423e-05
8.89439e-05
9.67658e-05
7.53178e-05
6.44905e-05
6.43079e-05
5.7931e-05
3.43158e-05
4.30755e-05
2.74027e-05
2.52333e-05
3.14661e-05
2.18885e-05
-9.77712e-06
-9.61749e-07
-4.43723e-06
-1.04089e-05
1.54269e-06
2.02004e-06
1.12624e-05
-1.02228e-05
-3.0339e-06
2.59148e-07
9.32587e-07
-2.71505e-06
4.45372e-07
1.67521e-06
-5.12798e-07
-2.11782e-06
-4.33035e-06
0.0112918
0.00921334
0.0048412
0.00133642
-0.0019129
-0.000836764
-0.00129647
-0.000811341
-0.000489431
-0.000125475
-7.28595e-05
4.7051e-05
0.00010179
0.000187752
0.000218255
0.000366063
-0.000868821
0.000703696
-0.00025269
-0.000246566
-0.000390553
-0.000314626
-0.000265542
-0.000285167
-0.000227238
-0.000228171
-0.000243526
0.000249084
0.000268447
0.000259063
0.000250624
0.000190978
0.000164845
0.000123901
0.000101276
0.00014215
0.00013136
0.000132569
0.000119071
9.82035e-05
8.74006e-05
8.09309e-05
7.51163e-05
9.61143e-05
6.97019e-05
-3.17998e-05
-1.58402e-05
-1.96321e-05
-1.4346e-05
-1.79191e-05
-4.33553e-06
-1.86541e-05
-4.10835e-06
-7.40157e-06
-9.47229e-06
-6.22305e-06
-4.92093e-06
1.20955e-05
1.11806e-05
4.71948e-06
6.35422e-06
1.64582e-05
2.33418e-05
3.31582e-05
7.55932e-06
-2.71517e-06
-5.7969e-06
6.38408e-07
2.34135e-06
1.0347e-05
1.40347e-05
7.51274e-06
-1.10935e-06
-2.89483e-06
-0.000884901
-0.000632719
-0.00100916
-0.00107824
-0.00187099
-0.00134856
-0.00108043
-0.000978727
-0.000677968
-0.00058705
-0.000583599
-0.000546518
-0.000552055
-0.000478327
-0.000458313
-0.000382272
0.000769909
-0.000297727
0.000520416
0.000455309
0.000333467
0.00032548
0.000282282
0.000238836
0.000223037
0.00017014
0.000190649
-0.000207752
-0.000140155
-0.00014395
-9.716e-05
-0.000123318
-0.0001258
-0.000124651
-0.000119141
-0.000108482
-9.62823e-05
-8.01045e-05
-7.84133e-05
-6.74772e-05
-6.7424e-05
-5.03365e-05
-4.79112e-05
-2.98329e-05
-4.03772e-05
6.72476e-05
6.39978e-05
5.43697e-05
4.49727e-05
4.23277e-05
3.83073e-05
1.95264e-05
2.5291e-05
1.76705e-05
2.04459e-05
2.40223e-05
1.99816e-05
-8.81699e-06
-3.55454e-06
-4.41997e-06
-6.57505e-06
-4.17408e-06
-3.58248e-06
3.01515e-06
-9.72323e-06
-7.78736e-07
1.67106e-06
7.08774e-07
-2.72379e-06
-1.72995e-06
-1.47285e-06
-4.1885e-07
-1.69736e-06
-2.92668e-06
0.0023196
0.00229504
0.00162294
0.000768426
-0.000193078
-0.000323448
-0.000490416
-0.000416089
-0.000237874
-7.45894e-05
1.46061e-05
0.000116202
0.000187598
0.000240363
0.000275878
0.000452703
-0.000884579
0.000510962
-0.000205216
-0.000264306
-0.00030115