/*--------------------------------*- C++ -*----------------------------------*\
| =========                 |                                                 |
| \\      /  F ield         | OpenFOAM: The Open Source CFD Toolbox           |
|  \\    /   O peration     | Version:  2312                                  |
|   \\  /    A nd           | Website:  www.openfoam.com                      |
|    \\/     M anipulation  |                                                 |
\*---------------------------------------------------------------------------*/
FoamFile
{
    version     2.0;
    format      ascii;
    arch        "LSB;label=32;scalar=64";
    class       volScalarField;
    location    "200";
    object      magR;
}
// * * * * * * * * * * * * * * * * * * * * * * * * * * * * * * * * * * * * * //

dimensions      [0 2 -2 0 0 0 0];

internalField   nonuniform List<scalar> 
11040
(
1.61055
3.35048
5.20234
6.75427
8.76084
14.5119
11.5035
9.93025
9.68747
13.5336
17.7907
22.474
26.6868
29.1138
31.2021
33.0247
34.4129
35.2735
35.5827
35.356
34.502
33.074
31.4556
29.8664
28.2856
26.654
24.9625
23.2175
21.4163
19.5556
17.6369
15.6677
13.6621
11.6317
9.54654
7.09542
4.57993
3.39788
2.32115
1.64585
1.04629
0.219778
0.269755
0.453481
1.17169
3.06834
8.51787
16.1134
24.7165
36.8551
50.898
54.8824
51.6035
45.4566
39.0003
33.5236
29.0897
25.4807
22.5142
20.0677
18.017
16.2534
14.854
13.681
12.6383
11.7451
11.0064
10.3928
9.86884
9.41202
9.00847
8.65037
8.33019
8.03976
7.76588
7.48643
7.12216
6.63205
6.20666
5.89741
5.43422
8.96588
0.126526
0.0957407
0.0823279
0.0613806
0.0492887
0.44295
1.73059
4.23981
8.14655
13.2365
19.094
25.1534
30.7921
35.1875
37.659
37.9773
36.4426
33.7273
30.5551
27.4423
24.6396
22.2947
20.4608
18.9549
17.6716
16.5652
15.5915
14.7206
13.9343
13.2244
12.5849
12.0116
11.5003
11.0416
10.6292
10.2495
9.90547
9.54394
9.24435
8.41353
9.516
0.0892471
0.0816921
0.0703672
0.0612147
0.0518165
0.0316792
0.0179142
0.0345216
0.160845
0.410418
0.776739
1.28346
2.08876
3.46052
5.64466
8.70508
12.4193
16.2906
19.7123
22.1731
23.4454
23.6284
23.0659
22.105
21.0027
19.9144
18.9038
17.9917
17.1792
16.4583
15.8165
15.2408
14.7203
14.2428
13.8031
13.3928
13.0216
12.6354
12.3271
11.4586
11.9497
0.061839
0.0596612
0.054919
0.047644
0.0416304
0.0359659
0.0259167
0.0134985
0.00541574
0.0156424
0.00197717
0.00217585
0.000532906
0.000844592
0.00433116
0.0338655
0.158093
0.495554
1.24538
2.61256
4.71872
7.32087
9.92103
12.2008
14.0061
15.3109
16.1668
16.6565
16.8716
16.8952
16.7947
16.6199
16.4061
16.174
15.938
15.6998
15.4717
15.207
14.9954
14.369
14.5087
0.0421023
0.0423603
0.0409603
0.0376121
0.0337421
0.0308649
0.0286652
0.0254504
0.0209317
0.0149094
0.0110413
0.00793266
0.0057745
0.00405527
0.00162081
0.00120775
1.0452e-06
0.0403553
0.0708498
0.00182582
0.0142615
0.0914228
0.350349
0.859295
1.66171
2.75203
4.08558
5.58585
7.16484
8.73798
10.2343
11.6013
12.8057
13.834
14.6834
15.3529
15.8592
16.1893
16.426
16.3361
16.5785
0.0292288
0.0299805
0.0305714
0.0300579
0.028416
0.0261858
0.024032
0.0221454
0.0202665
0.0182909
0.0157635
0.0134722
0.0113216
0.00958162
0.00833276
0.00733836
0.00623817
0.00461334
0.00285857
6.50429e-07
0.00528138
0.000348559
0.00331078
0.00830759
0.0152612
0.0225917
0.0488996
0.147608
0.362216
0.742988
1.33953
2.19024
3.31489
4.71127
6.34407
8.13812
9.99223
11.7974
13.4743
14.7958
16.3114
0.0204997
0.021163
0.0220694
0.0224492
0.0220905
0.0211868
0.0199922
0.0186442
0.0171467
0.0155102
0.0137405
0.0119125
0.0101459
0.0086067
0.00740373
0.00652588
0.00590829
0.00537154
0.00498259
0.00441521
0.00350054
0.00238931
0.0015963
4.89341e-05
0.00162463
0.00485678
0.000688685
0.0229344
0.00213681
0.0120554
0.0170206
0.0314161
0.0836251
0.220206
0.507734
1.02956
1.86722
3.09381
4.74665
6.64034
9.38135
0.0145366
0.0150134
0.0157968
0.0164643
0.0167633
0.0166527
0.0162017
0.0154873
0.014544
0.0133907
0.0120748
0.0106655
0.00925831
0.00796928
0.00688455
0.00602852
0.00536443
0.00484923
0.00443646
0.00413737
0.00384608
0.0034424
0.0030369
0.00256164
0.00215815
0.00166664
0.00120118
0.000559684
9.72695e-06
0.000872707
0.00175485
0.00463272
0.000349391
0.00175453
0.00429141
0.0115955
0.0368755
0.11804
0.329276
0.714935
1.7095
0.0103733
0.010692
0.0112555
0.0118514
0.012311
0.0125464
0.0125393
0.0123077
0.0118659
0.0112231
0.0104051
0.00945714
0.00844532
0.00745488
0.00656083
0.00580336
0.00518305
0.0046791
0.0042647
0.00392485
0.00364523
0.00340779
0.00318559
0.00301109
0.00282396
0.00264706
0.00242208
0.00224011
0.00186671
0.00154805
0.00120537
0.000787016
0.000389669
0.000195249
0.000260749
0.000723947
0.00249874
0.00690099
0.00155871
0.00549311
0.0481698
0.00743437
0.00764201
0.00801963
0.00846577
0.00889027
0.00922512
0.00942599
0.00947145
0.00935309
0.00906931
0.00863349
0.00806845
0.00741172
0.00671858
0.00604574
0.00543525
0.00490513
0.00445376
0.00407114
0.00374449
0.00346353
0.00322427
0.00301785
0.00283816
0.00268511
0.00256009
0.00245546
0.00236874
0.0023
0.0022162
0.00211985
0.00197156
0.00175578
0.00144475
0.00111776
0.000734471
0.000245652
3.66646e-05
8.9136e-05
0.000193916
0.00219776
0.00533985
0.00547303
0.00571796
0.0060251
0.00635034
0.0066542
0.00690097
0.00706353
0.0071225
0.00706668
0.00689473
0.00661496
0.00624481
0.00581465
0.00536045
0.00491533
0.00450173
0.00412959
0.00380017
0.00350979
0.00325448
0.00303357
0.00284253
0.0026738
0.00252612
0.002399
0.00229146
0.00219984
0.00212317
0.00205869
0.00200447
0.00195704
0.00191485
0.00187816
0.00182054
0.0017293
0.00155491
0.00122762
0.000833513
0.000496163
6.20504e-05
0.00383897
0.00392373
0.00408055
0.0042843
0.00451412
0.00475008
0.0049704
0.0051543
0.00528371
0.00534366
0.00532659
0.00523042
0.00506096
0.00483179
0.00456189
0.00427236
0.00398165
0.00370242
0.00344159
0.00320144
0.00298347
0.00279144
0.002624
0.00247533
0.00234343
0.00222734
0.00212573
0.00203648
0.00195752
0.00188731
0.00182444
0.00176798
0.001717
0.00167286
0.00163475
0.0016027
0.00157477
0.00154876
0.00148172
0.00141928
0.00117712
0.0027596
0.0028132
0.00291312
0.00304581
0.00320138
0.00337031
0.00354084
0.00370031
0.00383608
0.00393627
0.00399201
0.00399785
0.00395202
0.00385872
0.00372587
0.00356417
0.00338514
0.0031989
0.00301304
0.0028322
0.0026606
0.00250461
0.0023656
0.00224016
0.00212719
0.00202596
0.00193545
0.00185436
0.00178127
0.00171488
0.00165398
0.00159753
0.00154463
0.00149453
0.00144686
0.00140199
0.00136004
0.00132301
0.00129112
0.00126037
0.00124242
0.00198171
0.00201566
0.00207939
0.00216508
0.00226817
0.0023842
0.00250709
0.00262985
0.00274501
0.00284465
0.00292187
0.00297113
0.0029887
0.00297354
0.00292771
0.0028555
0.00276244
0.00265455
0.0025374
0.00241535
0.00229284
0.00217656
0.0020693
0.00196971
0.00187789
0.00179369
0.00171664
0.00164611
0.00158131
0.00152148
0.00146583
0.00141365
0.0013643
0.00131712
0.0012716
0.00122742
0.00118427
0.00114173
0.00110041
0.00105688
0.00102547
0.00142125
0.00144295
0.00148366
0.00153864
0.00160603
0.00168379
0.0017687
0.00185703
0.00194467
0.00202695
0.00209935
0.00215788
0.00219907
0.0022206
0.00222158
0.00220288
0.00216651
0.00211509
0.00205174
0.0019793
0.00190108
0.00182253
0.00174669
0.0016735
0.00160385
0.00153813
0.00147637
0.00141844
0.00136402
0.0013128
0.00126437
0.00121834
0.00117435
0.001132
0.00109095
0.00105102
0.00101196
0.000973449
0.000935324
0.00089602
0.000861958
0.00102014
0.001034
0.00105999
0.00109515
0.00113894
0.00119046
0.00124789
0.00130919
0.00137216
0.00143421
0.00149266
0.00154496
0.00158867
0.00162169
0.00164249
0.00165034
0.00164542
0.00162863
0.00160111
0.00156427
0.00151997
0.00147194
0.00142272
0.00137285
0.00132347
0.00127526
0.00122855
0.0011835
0.00114017
0.00109852
0.00105846
0.00101982
0.000982491
0.000946264
0.000910972
0.000876557
0.000842932
0.000809921
0.000777404
0.000744762
0.000715461
0.000741491
0.000750412
0.000767343
0.000790307
0.000819351
0.000854025
0.000893222
0.000935731
0.00098031
0.0010255
0.00106973
0.00111149
0.00114923
0.00118145
0.00120685
0.00122446
0.0012337
0.00123444
0.001227
0.00121181
0.00118967
0.00116276
0.0011329
0.00110076
0.00106741
0.00103356
0.000999666
0.000966042
0.000932908
0.000900393
0.000868567
0.000837439
0.000807028
0.00077727
0.000748116
0.000719602
0.000691751
0.000664461
0.000637709
0.000611261
0.000587021
0.000551511
0.000557434
0.000568874
0.000584425
0.000604363
0.000628464
0.000655974
0.000686102
0.000718081
0.000751025
0.000783969
0.000815974
0.00084606
0.000873213
0.000896479
0.000915035
0.000928263
0.000935755
0.000937352
0.000933136
0.000923371
0.000909225
0.000891831
0.000871771
0.000849889
0.000826786
0.000802898
0.000778559
0.000754035
0.000729515
0.000705138
0.000680992
0.000657169
0.000633681
0.000610536
0.000587817
0.000565602
0.000543822
0.000522483
0.000501563
0.000482034
0.000419854
0.000423876
0.000431779
0.000442566
0.000456598
0.00047375
0.000493471
0.000515201
0.000538427
0.000562574
0.000587016
0.000611155
0.000634362
0.000655964
0.0006753
0.000691763
0.000704835
0.000714104
0.00071929
0.000720231
0.000716929
0.000710007
0.000700163
0.00068782
0.000673592
0.000657951
0.000641256
0.000623812
0.00060587
0.000587636
0.000569263
0.000550865
0.000532562
0.000514405
0.000496429
0.000478726
0.000461404
0.000444403
0.000427739
0.000411454
0.000396162
0.000325363
0.000328102
0.000333637
0.000341266
0.000351353
0.000363819
0.000378243
0.000394209
0.000411356
0.000429283
0.000447565
0.000465796
0.000483556
0.000500387
0.000515829
0.000529445
0.000540839
0.00054967
0.000555668
0.000558633
0.000558451
0.000555408
0.00054993
0.00054234
0.000533076
0.000522473
0.000510815
0.000498353
0.000485302
0.000471838
0.000458114
0.000444238
0.000430334
0.000416462
0.000402668
0.000389039
0.00037569
0.000362565
0.000349699
0.000337087
0.000325395
0.000255763
0.000257632
0.000261562
0.000267055
0.000274442
0.000283666
0.000294393
0.000306306
0.000319135
0.000332589
0.000346364
0.000360174
0.000373726
0.000386702
0.00039878
0.000409648
0.000419015
0.000426617
0.000432236
0.000435687
0.000436838
0.000435806
0.000432845
0.000428177
0.000422113
0.000414898
0.000406743
0.000397839
0.000388364
0.000378465
0.00036827
0.000357875
0.000347393
0.000336881
0.000326384
0.000315977
0.000305768
0.000295706
0.000285837
0.00027608
0.000267302
0.000203389
0.000204659
0.000207478
0.000211492
0.000216987
0.000223916
0.000232012
0.000241024
0.000250745
0.000260957
0.000271434
0.000281966
0.000292342
0.000302335
0.000311712
0.000320251
0.000327737
0.000333973
0.000338788
0.00034203
0.000343581
0.000343491
0.000341917
0.000339011
0.000334987
0.000330015
0.00032425
0.000317846
0.000310937
0.000303646
0.000296074
0.000288302
0.000280422
0.000272484
0.000264529
0.000256618
0.000248845
0.000241163
0.000233626
0.000226079
0.000219596
0.000163287
0.000164144
0.000166184
0.000169158
0.000173305
0.000178582
0.00018477
0.00019167
0.000199119
0.000206948
0.000214983
0.000223068
0.000231045
0.000238747
0.000246005
0.000252656
0.000258543
0.00026352
0.000267458
0.000270238
0.000271767
0.000272066
0.00027124
0.000269391
0.000266666
0.000263187
0.00025907
0.000254432
0.000249375
0.000243993
0.000238361
0.000232552
0.000226633
0.000220647
0.000214629
0.000208627
0.000202722
0.000196869
0.000191126
0.000185286
0.000180562
0.000132133
0.000132704
0.000134193
0.000136425
0.000139595
0.000143662
0.000148446
0.000153787
0.000159553
0.000165611
0.000171826
0.000178077
0.000184244
0.000190202
0.000195825
0.000200993
0.00020559
0.000209508
0.000212651
0.000214929
0.00021627
0.000216685
0.000216246
0.000215027
0.000213135
0.000210657
0.000207678
0.000204284
0.000200551
0.000196547
0.000192341
0.000187976
0.000183515
0.000178991
0.00017443
0.000169869
0.000165375
0.00016091
0.000156531
0.000152004
0.000148598
0.000107633
0.000108008
0.000109104
0.000110801
0.000113253
0.000116423
0.000120161
0.000124336
0.000128841
0.000133569
0.000138413
0.000143279
0.000148074
0.000152702
0.000157068
0.000161083
0.00016466
0.000167719
0.000170189
0.000172003
0.000173108
0.000173511
0.00017327
0.00017244
0.000171095
0.000169298
0.000167111
0.000164597
0.000161814
0.000158816
0.000155655
0.000152363
0.000148994
0.000145564
0.0001421
0.00013863
0.000135205
0.000131794
0.000128451
0.000124936
0.000122499
8.81667e-05
8.8407e-05
8.92213e-05
9.05282e-05
9.24482e-05
9.49447e-05
9.78943e-05
0.000101188
0.000104737
0.000108457
0.000112262
0.000116075
0.000119825
0.000123437
0.00012684
0.000129965
0.000132748
0.000135129
0.000137056
0.000138478
0.000139358
0.000139704
0.000139564
0.000138976
0.000137994
0.000136665
0.000135034
0.000133149
0.000131056
0.000128796
0.000126404
0.000123911
0.00012135
0.000118738
0.000116095
0.000113443
0.000110822
0.000108206
0.000105643
0.000102907
0.000101166
7.25604e-05
7.27102e-05
7.3322e-05
7.43429e-05
7.58642e-05
7.78511e-05
8.02003e-05
8.28214e-05
8.56413e-05
8.85901e-05
9.1599e-05
9.46069e-05
9.75567e-05
0.000100391
0.000103053
0.000105493
0.000107661
0.000109513
0.00011101
0.000112115
0.000112801
0.000113079
0.000112986
0.000112552
0.000111817
0.000110816
0.000109583
0.000108156
0.000106569
0.000104852
0.00010303
0.000101131
9.91732e-05
9.71763e-05
9.51525e-05
9.3118e-05
9.11038e-05
8.90909e-05
8.71194e-05
8.49862e-05
8.37442e-05
5.9953e-05
6.00428e-05
6.05093e-05
6.1319e-05
6.25392e-05
6.41367e-05
6.6025e-05
6.81286e-05
7.03865e-05
7.27414e-05
7.51373e-05
7.75251e-05
7.98591e-05
8.20942e-05
8.41875e-05
8.6099e-05
8.77926e-05
8.92345e-05
9.03965e-05
9.12514e-05
9.17798e-05
9.19933e-05
9.19243e-05
9.1595e-05
9.10354e-05
9.02724e-05
8.93324e-05
8.82422e-05
8.70275e-05
8.57117e-05
8.43141e-05
8.28571e-05
8.13524e-05
7.98172e-05
7.82581e-05
7.66891e-05
7.51341e-05
7.35785e-05
7.20552e-05
7.03884e-05
6.9498e-05
4.97002e-05
4.97514e-05
5.01139e-05
5.07668e-05
5.17579e-05
5.30558e-05
5.45876e-05
5.62899e-05
5.81117e-05
6.00057e-05
6.19263e-05
6.38336e-05
6.56912e-05
6.74634e-05
6.91169e-05
7.06212e-05
7.19487e-05
7.30743e-05
7.39772e-05
7.46378e-05
7.5042e-05
7.52018e-05
7.51458e-05
7.48898e-05
7.44575e-05
7.38688e-05
7.31439e-05
7.23037e-05
7.13677e-05
7.03534e-05
6.92769e-05
6.81522e-05
6.69926e-05
6.58058e-05
6.45999e-05
6.33857e-05
6.21806e-05
6.09739e-05
5.97924e-05
5.84881e-05
5.78467e-05
4.13134e-05
4.13416e-05
4.16298e-05
4.21659e-05
4.29816e-05
4.40473e-05
4.53013e-05
4.66902e-05
4.81712e-05
4.97052e-05
5.12549e-05
5.27878e-05
5.42749e-05
5.56878e-05
5.70007e-05
5.81901e-05
5.92353e-05
6.01173e-05
6.08212e-05
6.13328e-05
6.1642e-05
6.17603e-05
6.17121e-05
6.15099e-05
6.11712e-05
6.07125e-05
6.01494e-05
5.94976e-05
5.87723e-05
5.79866e-05
5.71524e-05
5.62796e-05
5.53817e-05
5.4459e-05
5.35227e-05
5.25791e-05
5.16406e-05
5.07002e-05
4.97795e-05
4.87569e-05
4.82892e-05
3.44185e-05
3.4434e-05
3.46697e-05
3.51185e-05
3.5799e-05
3.66834e-05
3.77193e-05
3.88617e-05
4.00747e-05
4.13257e-05
4.25842e-05
4.38239e-05
4.50213e-05
4.61541e-05
4.72022e-05
4.81476e-05
4.89745e-05
4.96689e-05
5.02199e-05
5.06173e-05
5.08542e-05
5.09413e-05
5.09004e-05
5.07402e-05
5.04747e-05
5.01165e-05
4.96779e-05
4.9171e-05
4.8607e-05
4.79958e-05
4.7347e-05
4.66669e-05
4.59687e-05
4.52516e-05
4.45223e-05
4.37864e-05
4.30537e-05
4.23196e-05
4.16009e-05
4.07989e-05
4.04569e-05
2.87249e-05
2.8735e-05
2.8934e-05
2.93172e-05
2.98927e-05
3.06344e-05
3.14979e-05
3.24452e-05
3.34459e-05
3.44729e-05
3.55016e-05
3.65102e-05
3.74801e-05
3.83936e-05
3.92352e-05
3.99908e-05
4.06487e-05
4.11986e-05
4.16325e-05
4.19432e-05
4.21259e-05
4.21907e-05
4.21561e-05
4.20289e-05
4.18195e-05
4.1538e-05
4.11942e-05
4.07975e-05
4.03565e-05
3.98789e-05
3.93718e-05
3.88411e-05
3.82954e-05
3.77364e-05
3.71657e-05
3.65897e-05
3.60156e-05
3.54404e-05
3.48768e-05
3.4247e-05
3.39903e-05
2.40054e-05
2.4015e-05
2.41886e-05
2.45222e-05
2.50154e-05
2.56439e-05
2.637e-05
2.71615e-05
2.79929e-05
2.88418e-05
2.96878e-05
3.05136e-05
3.13039e-05
3.20451e-05
3.27248e-05
3.33325e-05
3.38595e-05
3.4298e-05
3.46427e-05
3.48885e-05
3.50321e-05
3.50819e-05
3.50548e-05
3.49552e-05
3.47916e-05
3.45723e-05
3.43048e-05
3.39961e-05
3.36529e-05
3.32814e-05
3.28868e-05
3.24734e-05
3.20486e-05
3.16135e-05
3.11677e-05
3.07178e-05
3.02688e-05
2.98187e-05
2.93775e-05
2.88834e-05
2.86947e-05
2.00804e-05
2.00925e-05
2.0249e-05
2.05448e-05
2.09727e-05
2.15104e-05
2.21259e-05
2.27919e-05
2.34873e-05
2.41934e-05
2.48937e-05
2.5574e-05
2.62221e-05
2.68272e-05
2.73798e-05
2.7872e-05
2.82971e-05
2.86496e-05
2.89256e-05
2.91218e-05
2.92356e-05
2.92748e-05
2.92535e-05
2.91752e-05
2.90463e-05
2.88737e-05
2.86632e-05
2.84208e-05
2.81514e-05
2.78596e-05
2.75496e-05
2.72252e-05
2.68914e-05
2.65503e-05
2.61998e-05
2.58469e-05
2.54941e-05
2.51402e-05
2.47928e-05
2.44054e-05
2.42564e-05
1.68071e-05
1.68236e-05
1.69687e-05
1.7235e-05
1.76105e-05
1.80744e-05
1.85997e-05
1.91638e-05
1.97489e-05
2.03398e-05
2.0923e-05
2.1487e-05
2.2022e-05
2.25195e-05
2.29721e-05
2.33739e-05
2.372e-05
2.40065e-05
2.42309e-05
2.43911e-05
2.44857e-05
2.4521e-05
2.45096e-05
2.44536e-05
2.4358e-05
2.42282e-05
2.40689e-05
2.38842e-05
2.36781e-05
2.34545e-05
2.32166e-05
2.29674e-05
2.27086e-05
2.24462e-05
2.21768e-05
2.19021e-05
2.1627e-05
2.13508e-05
2.10801e-05
2.07761e-05
2.06731e-05
1.40712e-05
1.40932e-05
1.42305e-05
1.44731e-05
1.48051e-05
1.52079e-05
1.5659e-05
1.61394e-05
1.66345e-05
1.71318e-05
1.76203e-05
1.80908e-05
1.85355e-05
1.89476e-05
1.93213e-05
1.96521e-05
1.99364e-05
2.01713e-05
2.03549e-05
2.0486e-05
2.0563e-05
2.05915e-05
2.05823e-05
2.0537e-05
2.04599e-05
2.03555e-05
2.02277e-05
2.008e-05
1.99162e-05
1.97391e-05
1.95512e-05
1.93548e-05
1.91511e-05
1.89447e-05
1.87339e-05
1.85177e-05
1.83015e-05
1.8085e-05
1.7872e-05
1.76371e-05
1.75431e-05
1.17804e-05
1.18083e-05
1.19405e-05
1.2163e-05
1.24577e-05
1.28083e-05
1.31967e-05
1.36075e-05
1.40286e-05
1.44497e-05
1.48616e-05
1.52568e-05
1.56289e-05
1.59729e-05
1.62844e-05
1.656e-05
1.67973e-05
1.69944e-05
1.71506e-05
1.72653e-05
1.73383e-05
1.73738e-05
1.73813e-05
1.7361e-05
1.73158e-05
1.72486e-05
1.71624e-05
1.70601e-05
1.69438e-05
1.68158e-05
1.66779e-05
1.65318e-05
1.63788e-05
1.62228e-05
1.60625e-05
1.58966e-05
1.57304e-05
1.55629e-05
1.53992e-05
1.5212e-05
1.51667e-05
9.85977e-06
9.89344e-06
1.00217e-05
1.02266e-05
1.04886e-05
1.07938e-05
1.1128e-05
1.14791e-05
1.18376e-05
1.21955e-05
1.25452e-05
1.288e-05
1.31946e-05
1.34844e-05
1.37462e-05
1.39772e-05
1.41755e-05
1.43393e-05
1.44676e-05
1.45598e-05
1.46147e-05
1.46366e-05
1.46337e-05
1.46073e-05
1.45604e-05
1.44964e-05
1.44186e-05
1.43294e-05
1.42309e-05
1.4125e-05
1.4013e-05
1.38964e-05
1.37759e-05
1.36548e-05
1.35313e-05
1.34041e-05
1.32768e-05
1.31499e-05
1.30237e-05
1.289e-05
1.28186e-05
8.24855e-06
8.28671e-06
8.41039e-06
8.59824e-06
8.83074e-06
9.09672e-06
9.38466e-06
9.68472e-06
9.98944e-06
1.02927e-05
1.05891e-05
1.08737e-05
1.1142e-05
1.139e-05
1.16149e-05
1.18145e-05
1.19883e-05
1.21363e-05
1.22592e-05
1.23574e-05
1.24311e-05
1.24823e-05
1.2517e-05
1.25339e-05
1.25336e-05
1.2518e-05
1.24883e-05
1.24458e-05
1.23919e-05
1.23278e-05
1.2255e-05
1.21748e-05
1.20884e-05
1.19988e-05
1.19048e-05
1.18052e-05
1.1705e-05
1.16026e-05
1.15041e-05
1.13821e-05
1.13887e-05
6.89808e-06
6.93926e-06
7.05617e-06
7.22438e-06
7.42659e-06
7.65572e-06
7.90364e-06
8.16217e-06
8.42418e-06
8.68348e-06
8.93504e-06
9.17533e-06
9.40184e-06
9.61226e-06
9.80389e-06
9.9736e-06
1.01183e-05
1.02353e-05
1.03232e-05
1.03823e-05
1.0412e-05
1.04167e-05
1.04039e-05
1.03764e-05
1.03374e-05
1.02901e-05
1.02371e-05
1.01801e-05
1.01204e-05
1.0059e-05
9.99692e-06
9.9347e-06
9.87214e-06
9.81077e-06
9.74976e-06
9.6875e-06
9.62515e-06
9.56409e-06
9.50052e-06
9.44559e-06
9.36798e-06
5.76817e-06
5.81215e-06
5.92166e-06
6.06835e-06
6.23726e-06
6.42562e-06
6.63016e-06
6.8469e-06
7.07141e-06
7.29806e-06
7.52039e-06
7.73242e-06
7.92999e-06
8.11149e-06
8.27783e-06
8.43149e-06
8.57522e-06
8.71081e-06
8.83877e-06
8.95802e-06
9.06702e-06
9.16385e-06
9.24947e-06
9.32014e-06
9.37444e-06
9.41241e-06
9.43449e-06
9.44131e-06
9.43398e-06
9.41394e-06
9.38256e-06
9.34116e-06
9.29158e-06
9.23458e-06
9.17339e-06
9.10639e-06
9.03543e-06
8.961e-06
8.89229e-06
8.78862e-06
8.85527e-06
4.82258e-06
4.86749e-06
4.96971e-06
5.09855e-06
5.23985e-06
5.39137e-06
5.55084e-06
5.71695e-06
5.88984e-06
6.0697e-06
6.25535e-06
6.44331e-06
6.62737e-06
6.79921e-06
6.94992e-06
7.07205e-06
7.16118e-06
7.21654e-06
7.24046e-06
7.2381e-06
7.21197e-06
7.16919e-06
7.11794e-06
7.06336e-06
7.00881e-06
6.95678e-06
6.90899e-06
6.86669e-06
6.83057e-06
6.8008e-06
6.77725e-06
6.75957e-06
6.74706e-06
6.73896e-06
6.73604e-06
6.73668e-06
6.73671e-06
6.74115e-06
6.73903e-06
6.76967e-06
6.66263e-06
4.03011e-06
4.06667e-06
4.15173e-06
4.25917e-06
4.3802e-06
4.51343e-06
4.65362e-06
4.79436e-06
4.93072e-06
5.06048e-06
5.18475e-06
5.30798e-06
5.43668e-06
5.57762e-06
5.73597e-06
5.91394e-06
6.11027e-06
6.3203e-06
6.53721e-06
6.75214e-06
6.96002e-06
7.15334e-06
7.32765e-06
7.47674e-06
7.59902e-06
7.69507e-06
7.76633e-06
7.81453e-06
7.84175e-06
7.8501e-06
7.8416e-06
7.81807e-06
7.78168e-06
7.73356e-06
7.67619e-06
7.60921e-06
7.53561e-06
7.45358e-06
7.37852e-06
7.24798e-06
7.36395e-06
3.37417e-06
3.39532e-06
3.44675e-06
3.50724e-06
3.5783e-06
3.66934e-06
3.7846e-06
3.92321e-06
4.07922e-06
4.2415e-06
4.39548e-06
4.52612e-06
4.62117e-06
4.67369e-06
4.6833e-06
4.65573e-06
4.60085e-06
4.52996e-06
4.45287e-06
4.37872e-06
4.30542e-06
4.23409e-06
4.16396e-06
4.09904e-06
4.0401e-06
3.98781e-06
3.94373e-06
3.91e-06
3.88826e-06
3.8792e-06
3.88265e-06
3.8984e-06
3.92588e-06
3.96451e-06
4.01421e-06
4.07423e-06
4.14028e-06
4.21719e-06
4.28954e-06
4.41523e-06
4.34583e-06
2.85274e-06
2.87728e-06
2.91562e-06
2.93888e-06
2.94624e-06
2.94829e-06
2.95432e-06
2.97359e-06
3.01683e-06
3.09596e-06
3.22259e-06
3.4054e-06
3.64723e-06
3.94351e-06
4.28284e-06
4.64902e-06
5.02393e-06
5.38989e-06
5.73253e-06
6.03819e-06
6.30812e-06
6.5421e-06
6.73506e-06
6.88759e-06
7.0048e-06
7.09226e-06
7.15384e-06
7.19594e-06
7.2196e-06
7.23033e-06
7.23089e-06
7.2216e-06
7.20291e-06
7.17443e-06
7.13743e-06
7.09208e-06
7.04077e-06
6.9801e-06
6.92158e-06
6.83292e-06
6.8533e-06
2.44768e-06
2.49047e-06
2.55605e-06
2.61177e-06
2.64253e-06
2.64374e-06
2.61371e-06
2.55624e-06
2.48155e-06
2.40484e-06
2.34352e-06
2.31361e-06
2.32544e-06
2.38064e-06
2.47196e-06
2.58606e-06
2.70764e-06
2.82299e-06
2.92223e-06
3.00016e-06
3.05216e-06
3.07715e-06
3.06468e-06
3.02716e-06
2.97364e-06
2.90952e-06
2.84262e-06
2.78739e-06
2.75751e-06
2.74926e-06
2.75149e-06
2.75944e-06
2.77194e-06
2.78814e-06
2.80738e-06
2.82791e-06
2.85116e-06
2.86867e-06
2.91051e-06
2.84816e-06
3.19012e-06
2.10738e-06
2.09922e-06
2.16865e-06
2.3896e-06
2.79333e-06
3.34524e-06
3.97846e-06
4.6311e-06
5.25741e-06
5.82642e-06
6.31843e-06
6.72215e-06
7.03325e-06
7.25258e-06
7.38523e-06
7.43949e-06
7.4259e-06
7.35599e-06
7.24153e-06
7.09206e-06
6.9191e-06
6.76423e-06
6.6028e-06
6.44523e-06
6.29512e-06
6.15219e-06
6.02062e-06
5.88003e-06
5.72666e-06
5.57326e-06
5.42324e-06
5.27615e-06
5.12924e-06
4.97843e-06
4.82265e-06
4.65999e-06
4.48733e-06
4.30225e-06
4.09047e-06
3.9498e-06
3.44606e-06
32.055
29.7517
24.136
20.1808
17.2893
14.8657
12.6815
10.6583
8.7669
7.01254
5.40224
3.95763
2.70518
1.67409
0.899589
0.392827
0.119186
0.0195414
0.000257406
0.00148634
0.000186773
1.48182e-05
4.11583e-05
7.04964e-05
9.29395e-05
9.01047e-05
7.50111e-05
6.3272e-05
5.63477e-05
5.12628e-05
4.64507e-05
4.16086e-05
3.686e-05
3.23416e-05
2.81359e-05
2.42965e-05
2.08822e-05
1.79114e-05
1.53939e-05
1.32983e-05
1.15853e-05
1.02035e-05
9.0914e-06
8.18525e-06
7.42596e-06
6.85748e-06
6.30269e-06
5.69463e-06
5.12097e-06
4.59846e-06
4.11347e-06
3.66531e-06
3.24796e-06
2.86747e-06
2.52229e-06
2.21468e-06
1.93989e-06
1.75735e-06
1.53117e-06
1.36313e-06
1.24883e-06
1.17248e-06
1.13842e-06
1.13142e-06
1.15844e-06
1.20847e-06
1.27185e-06
1.33987e-06
1.42337e-06
1.49294e-06
1.60406e-06
1.62618e-06
1.83047e-06
1.73695e-06
18.0661
28.1968
27.1605
23.9259
20.9873
18.5152
16.3407
14.3381
12.4441
10.6361
8.90444
7.25121
5.69061
4.24817
2.96113
1.876
1.03008
0.46082
0.147714
0.0274288
0.00100586
0.00134911
0.000324795
4.57016e-05
1.13968e-05
4.72915e-05
6.33592e-05
6.94066e-05
6.38286e-05
5.46984e-05
4.75435e-05
4.20301e-05
3.73409e-05
3.30278e-05
2.89358e-05
2.50771e-05
2.15369e-05
1.83819e-05
1.5664e-05
1.33937e-05
1.1544e-05
1.00651e-05
8.89058e-06
7.95309e-06
7.16659e-06
6.7337e-06
6.18526e-06
5.66056e-06
5.1346e-06
4.6345e-06
4.16519e-06
3.73151e-06
3.32369e-06
2.94897e-06
2.60572e-06
2.29735e-06
2.02072e-06
1.7605e-06
1.50056e-06
1.33618e-06
1.22719e-06
1.15628e-06
1.12587e-06
1.1238e-06
1.15492e-06
1.20848e-06
1.27386e-06
1.34293e-06
1.42665e-06
1.4973e-06
1.60621e-06
1.63391e-06
1.82926e-06
1.75147e-06
4.74552
10.7651
16.4086
18.1882
18.0766
17.2489
16.1842
15.0296
13.8121
12.5368
11.2071
9.83226
8.42807
7.01592
5.62394
4.29034
3.05589
1.9822
1.12325
0.522623
0.179659
0.0388689
0.00259579
0.000154855
0.00013333
2.71499e-06
2.65807e-06
3.22091e-05
4.57931e-05
5.27646e-05
5.30071e-05
4.68252e-05
4.00246e-05
3.42657e-05
2.95997e-05
2.56217e-05
2.20899e-05
1.89238e-05
1.61145e-05
1.36858e-05
1.16508e-05
1.00056e-05
8.71032e-06
7.70532e-06
6.90252e-06
6.29299e-06
5.82733e-06
5.40339e-06
4.94851e-06
4.48132e-06
4.03114e-06
3.61427e-06
3.22518e-06
2.86446e-06
2.53287e-06
2.23294e-06
1.96955e-06
1.65592e-06
1.46429e-06
1.31111e-06
1.20583e-06
1.1415e-06
1.11513e-06
1.11997e-06
1.15522e-06
1.21095e-06
1.27778e-06
1.34779e-06
1.43156e-06
1.50329e-06
1.61062e-06
1.64425e-06
1.82929e-06
1.76772e-06
12.9924
8.84123
5.27778
6.44366
8.63163
10.1007
10.9383
11.3625
11.4767
11.3293
10.9495
10.3682
9.61422
8.71311
7.68973
6.57586
5.40345
4.22383
3.08997
2.06314
1.21259
0.595104
0.223389
0.0578282
0.00702741
4.9803e-07
0.000934073
3.28444e-05
9.45647e-06
1.07511e-05
2.96955e-05
3.8072e-05
4.1605e-05
3.89428e-05
3.34756e-05
2.79025e-05
2.32654e-05
1.94882e-05
1.63868e-05
1.38496e-05
1.1764e-05
1.00482e-05
8.65001e-06
7.53355e-06
6.66608e-06
5.89798e-06
5.35718e-06
4.95897e-06
4.57996e-06
4.17292e-06
3.7561e-06
3.35921e-06
2.99136e-06
2.65101e-06
2.3393e-06
2.05745e-06
1.80741e-06
1.61019e-06
1.43369e-06
1.28685e-06
1.18494e-06
1.12733e-06
1.10678e-06
1.11861e-06
1.15784e-06
1.21499e-06
1.28263e-06
1.35354e-06
1.43745e-06
1.51059e-06
1.61679e-06
1.6561e-06
1.83114e-06
1.78342e-06
16.7989
16.2477
13.2897
9.51289
6.04589
3.60779
2.98761
3.93805
5.20831
6.32069
7.16589
7.73329
8.03115
8.07036
7.86272
7.4311
6.79764
6.00385
5.09104
4.10272
3.09703
2.14303
1.31789
0.688112
0.286166
0.0844012
0.0146991
0.000266524
2.24693e-06
5.33059e-05
3.67532e-05
1.94179e-05
1.30474e-05
2.26489e-05
2.77029e-05
2.94464e-05
2.72598e-05
2.29206e-05
1.85513e-05
1.4899e-05
1.20421e-05
9.9226e-06
8.39116e-06
7.26225e-06
6.41276e-06
5.65856e-06
5.05031e-06
4.60947e-06
4.26151e-06
3.92244e-06
3.56373e-06
3.20311e-06
2.8614e-06
2.54355e-06
2.25142e-06
1.98603e-06
1.74798e-06
1.55851e-06
1.39493e-06
1.25955e-06
1.16328e-06
1.11269e-06
1.09977e-06
1.11874e-06
1.16162e-06
1.21976e-06
1.28783e-06
1.35961e-06
1.44375e-06
1.51869e-06
1.62407e-06
1.66877e-06
1.83455e-06
1.7987e-06
18.1527
18.6203
17.9389
16.4002
14.215
11.6661
9.04848
6.5449
4.27399
2.38909
1.47969
2.20071
3.34706
4.37453
5.17146
5.71053
5.98048
5.99502
5.76814
5.32258
4.69329
3.92628
3.08025
2.22529
1.44378
0.810287
0.373875
0.129323
0.0296442
0.00224121
0.000101373
0.000166027
7.55967e-06
5.01079e-06
4.26111e-06
1.23574e-05
1.47079e-05
1.76474e-05
1.90893e-05
1.77327e-05
1.47494e-05
1.16475e-05
9.08052e-06
7.20276e-06
5.97572e-06
5.16473e-06
4.60025e-06
4.20324e-06
3.90774e-06
3.63807e-06
3.34388e-06
3.02433e-06
2.70654e-06
2.4095e-06
2.14038e-06
1.89788e-06
1.6795e-06
1.4967e-06
1.34819e-06
1.22835e-06
1.14137e-06
1.09773e-06
1.09312e-06
1.11982e-06
1.16665e-06
1.22579e-06
1.29414e-06
1.3667e-06
1.451e-06
1.52781e-06
1.63234e-06
1.68198e-06
1.83923e-06
1.81432e-06
16.8871
16.6951
16.375
16.0389
15.5511
14.8189
13.779
12.4278
10.8167
9.02938
7.15435
5.29014
3.51473
1.91813
0.866095
1.43039
2.44996
3.33439
4.00043
4.41773
4.57877
4.4907
4.1743
3.66525
3.01621
2.29448
1.58165
0.959801
0.491355
0.198553
0.0587383
0.0103312
9.27573e-05
0.000877014
4.33736e-05
2.39569e-06
9.24534e-06
1.01519e-05
8.52106e-06
8.0429e-06
9.49307e-06
1.09017e-05
1.05566e-05
8.91373e-06
7.05221e-06
5.49334e-06
4.37296e-06
3.67518e-06
3.29808e-06
3.10628e-06
2.96635e-06
2.78763e-06
2.5521e-06
2.28659e-06
2.0274e-06
1.79442e-06
1.59168e-06
1.42467e-06
1.29386e-06
1.19243e-06
1.11939e-06
1.08371e-06
1.08652e-06
1.12092e-06
1.17288e-06
1.23395e-06
1.30279e-06
1.37592e-06
1.4601e-06
1.53849e-06
1.64191e-06
1.69566e-06
1.84502e-06
1.83056e-06
9.81972
9.40597
9.10221
9.07208
9.25376
9.61102
10.0421
10.4263
10.6391
10.583
10.1999
9.48126
8.46247
7.20911
5.79555
4.31934
2.85997
1.50587
0.543338
1.11908
1.99878
2.71727
3.21571
3.47165
3.48313
3.26664
2.85806
2.31428
1.70901
1.12639
0.640773
0.303797
0.109572
0.0279123
0.00313796
1.49417e-08
0.000722128
0.000125834
3.14227e-06
7.0137e-06
7.26752e-06
4.63297e-06
3.97942e-06
3.98616e-06
5.24625e-06
5.80376e-06
5.2863e-06
4.35485e-06
3.47145e-06
2.84734e-06
2.48223e-06
2.28484e-06
2.16185e-06
2.03708e-06
1.88145e-06
1.70364e-06
1.52543e-06
1.36868e-06
1.24573e-06
1.1564e-06
1.09751e-06
1.07153e-06
1.08042e-06
1.1207e-06
1.17848e-06
1.24351e-06
1.31423e-06
1.38826e-06
1.47208e-06
1.55146e-06
1.65334e-06
1.70996e-06
1.85189e-06
1.84737e-06
1.94519
1.83762
1.7456
1.73899
1.81186
1.97684
2.26684
2.7001
3.28032
3.99049
4.78276
5.57584
6.26553
6.74606
6.93046
6.77504
6.27809
5.4929
4.48877
3.35972
2.1946
1.08064
0.345926
0.999485
1.7186
2.25886
2.5811
2.67217
2.54197
2.22546
1.77958
1.28311
0.816268
0.443581
0.196345
0.0662345
0.0151502
0.00114266
0.00042523
0.000542073
5.37325e-05
2.88257e-07
1.40423e-06
3.28208e-06
2.9013e-06
4.8584e-06
3.86406e-06
2.31428e-06
2.90421e-06
3.17362e-06
2.898e-06
2.45793e-06
2.07193e-06
1.7945e-06
1.60717e-06
1.47553e-06
1.37184e-06
1.27949e-06
1.19673e-06
1.12953e-06
1.08475e-06
1.06743e-06
1.08071e-06
1.12412e-06
1.18627e-06
1.25571e-06
1.3291e-06
1.40407e-06
1.48699e-06
1.56656e-06
1.66662e-06
1.72511e-06
1.86026e-06
1.8651e-06
0.0567637
0.0467457
0.0379421
0.0336959
0.0325847
0.0345678
0.0421709
0.0600378
0.0962855
0.165086
0.288554
0.49566
0.8167
1.27216