/*--------------------------------*- C++ -*----------------------------------*\
| =========                 |                                                 |
| \\      /  F ield         | OpenFOAM: The Open Source CFD Toolbox           |
|  \\    /   O peration     | Version:  2312                                  |
|   \\  /    A nd           | Website:  www.openfoam.com                      |
|    \\/     M anipulation  |                                                 |
\*---------------------------------------------------------------------------*/
FoamFile
{
    version     2.0;
    format      ascii;
    arch        "LSB;label=32;scalar=64";
    class       volVectorField;
    location    "200";
    object      momentError;
}
// * * * * * * * * * * * * * * * * * * * * * * * * * * * * * * * * * * * * * //

dimensions      [0 1 -2 0 0 0 0];

internalField   nonuniform List<vector> 
11040
(
(-8.96498 25.4062 -2.59652e-14)
(-2.07484 7.41521 5.67965e-14)
(-5.15248 -37.4601 2.8755e-13)
(-18.445 -44.2359 1.11073e-13)
(-14.2932 -18.5002 -2.00581e-14)
(1.35476 3.40404 2.44555e-15)
(13.372 10.8886 -1.77901e-13)
(-6.92158 -1.90852 -4.70904e-14)
(35.0524 11.9933 1.1247e-13)
(-274.935 -129.742 4.78134e-14)
(-347.492 -137.962 6.64856e-14)
(-335.705 -106.018 1.05727e-13)
(-259.176 -46.3747 -3.53129e-14)
(-122.175 1.6851 -5.58417e-14)
(-52.7165 8.82381 -2.84721e-14)
(-20.3552 6.89744 3.87005e-15)
(-7.61663 3.76717 -4.16373e-15)
(-2.50897 1.81929 6.99598e-16)
(-0.471971 0.815568 -9.53756e-17)
(0.453941 0.368731 -6.52851e-16)
(0.981393 0.134759 -3.65507e-15)
(1.4078 0.0184831 4.51945e-15)
(1.6634 -0.0408135 6.72895e-15)
(1.96195 -0.0954976 1.19615e-14)
(2.28286 -0.144349 6.60719e-15)
(2.24963 -0.141413 -1.3887e-14)
(2.36861 -0.18638 -4.82116e-15)
(2.57585 -0.23298 -8.72663e-15)
(2.65814 -0.273186 -1.04349e-15)
(2.79605 -0.319948 1.05392e-15)
(2.80117 -0.349511 1.28586e-14)
(2.82582 -0.373085 4.46658e-15)
(2.66976 -0.289942 7.90381e-15)
(2.58233 0.374815 1.32399e-14)
(4.49042 3.70025 3.76467e-16)
(17.1739 7.59851 6.04549e-15)
(37.0348 1.42738 2.13124e-15)
(29.5963 -5.90594 -4.72808e-16)
(18.2681 -5.43693 -2.32849e-19)
(5.43866 -2.60292 1.91951e-17)
(1.3435 0.0298643 1.48978e-16)
(-5.75037 15.5966 1.7433e-14)
(0.583366 31.9952 5.2299e-14)
(-2.62261 23.792 -1.09567e-13)
(-25.5281 11.3325 -3.03666e-13)
(-38.1203 -3.39929 -1.79739e-14)
(-30.6824 -8.63108 -3.68057e-14)
(0.972582 3.79226 -3.17083e-13)
(49.2925 34.4476 -1.75909e-13)
(58.4823 10.7488 7.2277e-14)
(234.526 70.5273 -2.98957e-14)
(149.143 37.4167 2.23213e-14)
(150.032 39.1778 -1.22974e-14)
(113.699 32.6828 9.45238e-14)
(52.8716 18.6851 2.80744e-14)
(23.84 9.72464 1.32872e-14)
(9.97647 5.06741 -1.50634e-14)
(4.0546 2.68956 -8.51025e-15)
(1.90545 1.40215 -2.33615e-15)
(1.31069 0.665921 2.25265e-15)
(1.46859 0.248578 -7.41694e-16)
(1.63513 0.0192838 1.33884e-15)
(1.81693 -0.0718925 -4.67385e-15)
(2.12164 -0.117857 -3.75093e-15)
(2.63811 -0.206501 1.32338e-14)
(2.98875 -0.241095 9.07928e-15)
(2.98554 -0.260191 1.8651e-15)
(3.24229 -0.332829 -1.19195e-14)
(3.5105 -0.403575 2.23149e-15)
(3.78851 -0.480913 -2.15385e-15)
(4.0277 -0.549795 -6.49725e-15)
(4.26023 -0.620338 1.44389e-15)
(4.42843 -0.679035 -7.62394e-15)
(4.53693 -0.717832 -2.63591e-15)
(4.45019 -0.640448 -2.33894e-15)
(3.33893 -0.245242 2.84378e-15)
(-5.01816 0.488846 -1.42678e-16)
(-20.4549 0.544998 -1.89589e-15)
(-16.5881 -0.349906 6.7961e-16)
(-8.46107 -0.902434 -6.60872e-18)
(-0.103578 -1.18328 -1.0335e-16)
(2.27736 -0.624091 2.58114e-16)
(-3.71341 14.8992 1.1877e-14)
(3.55772 11.0571 -6.7059e-14)
(12.887 7.28132 -8.83688e-14)
(13.631 18.9236 1.60608e-13)
(9.48482 22.6372 1.24769e-14)
(0.849371 11.9047 -1.31895e-13)
(-5.57906 2.57848 7.9678e-14)
(-1.15676 -2.89436 1.85669e-13)
(22.7941 1.05829 -3.35523e-14)
(27.667 -2.28235 -1.85488e-14)
(3.07832 -12.4853 1.39658e-14)
(-8.11595 -8.929 -4.15339e-14)
(-13.4502 -4.99164 -7.35453e-14)
(-13.2927 -2.08433 1.93778e-14)
(-7.16679 -0.250511 5.04922e-15)
(-2.66537 0.505638 1.48298e-14)
(-0.247525 0.823031 2.25513e-15)
(0.970955 0.772718 6.16521e-15)
(1.37198 0.489042 9.02726e-15)
(1.63369 0.180518 -1.73424e-16)
(1.9249 -0.0554119 1.40259e-16)
(2.27822 -0.169114 4.24857e-15)
(2.68976 -0.230256 1.54021e-15)
(3.22533 -0.315943 -6.10995e-15)
(3.89201 -0.407606 -9.82012e-15)
(3.85561 -0.400331 -6.11585e-15)
(4.10641 -0.481665 7.26522e-15)
(4.44636 -0.576873 -2.90142e-15)
(4.74588 -0.668964 3.28558e-15)
(5.05932 -0.759941 -1.60117e-16)
(5.30751 -0.840266 -1.47419e-15)
(5.53385 -0.914519 6.48436e-15)
(5.64113 -0.957391 -4.6101e-15)
(5.57332 -0.922861 3.49707e-15)
(5.14088 -0.752181 4.72353e-16)
(4.08273 -0.625689 -4.62091e-15)
(2.97106 -0.93526 4.73635e-16)
(3.33915 -1.28277 7.67551e-16)
(3.46501 -1.24174 5.81458e-16)
(3.81112 -1.05771 -1.22876e-16)
(2.96074 -0.0683608 -1.63633e-16)
(-2.5333 11.6773 -2.17969e-15)
(-0.1159 11.1124 3.18248e-14)
(1.00471 8.93313 2.65673e-14)
(2.59669 11.7072 -7.77786e-14)
(8.71904 17.2228 -3.02153e-14)
(15.0827 20.1655 1.26312e-13)
(15.942 17.5397 7.47365e-14)
(13.8719 9.42155 -3.05985e-14)
(10.0527 -1.38816 1.41724e-14)
(4.88964 -8.54807 -2.92078e-14)
(-6.53939 -11.6329 -5.53349e-14)
(-11.8656 -9.00987 2.85124e-14)
(-13.2533 -4.98727 3.19813e-14)
(-10.9065 -1.58018 9.32017e-15)
(-7.28115 -0.291556 3.13684e-14)
(-4.7378 -0.0894128 -8.1316e-15)
(-3.14376 0.0165632 -1.84498e-14)
(-1.74554 0.133015 -9.46193e-15)
(-0.429413 0.128779 1.09687e-15)
(0.799308 -0.00152459 -4.32964e-15)
(1.66462 -0.16929 7.64383e-16)
(2.46316 -0.260387 -2.85254e-15)
(2.96903 -0.328881 -3.705e-15)
(3.55089 -0.421574 -6.1834e-15)
(4.16071 -0.529543 -5.12946e-15)
(4.38304 -0.545822 -5.7815e-15)
(4.67262 -0.629532 -9.42802e-15)
(5.03548 -0.732813 -4.40097e-16)
(5.36204 -0.832843 -1.51058e-15)
(5.70206 -0.927319 7.87718e-15)
(5.98549 -1.01247 4.34914e-15)
(6.25904 -1.09189 3.19806e-15)
(6.43494 -1.14564 9.81225e-15)
(6.49074 -1.13933 -9.39617e-17)
(6.41706 -1.04864 -1.44955e-15)
(6.27225 -0.953026 4.39126e-16)
(6.18123 -1.00333 1.98482e-17)
(6.37458 -1.11881 3.08876e-16)
(6.2943 -1.11564 2.00052e-17)
(5.81014 -1.01053 -1.04476e-16)
(4.14348 -0.158601 -1.83404e-16)
(-1.75574 9.61145 1.94466e-15)
(-0.315378 9.22753 -9.93445e-15)
(1.62511 7.31713 1.82629e-14)
(2.23285 6.85568 1.19062e-13)
(3.18624 8.1997 1.96988e-14)
(6.50215 10.2304 -6.94544e-14)
(10.7359 10.3117 4.8992e-14)
(12.7394 6.82676 -1.50098e-14)
(12.0726 1.02244 7.41341e-15)
(9.7061 -4.79419 7.11438e-14)
(7.31138 -7.41482 8.67439e-14)
(5.00873 -6.00646 2.07929e-14)
(3.31206 -2.92718 3.79852e-16)
(2.54756 -0.0966232 -1.7715e-14)
(2.49744 0.847565 -2.28653e-14)
(2.52453 0.674993 -1.95377e-15)
(2.32313 0.428728 -1.5425e-14)
(2.51402 0.279537 1.14957e-14)
(2.74872 0.011913 -1.87681e-15)
(2.26546 0.0292564 -6.21208e-16)
(2.65425 -0.114138 3.43047e-16)
(3.05059 -0.309924 4.12979e-15)
(3.55049 -0.437219 4.95146e-15)
(4.15002 -0.508614 -8.32738e-15)
(4.7887 -0.593152 -6.68659e-16)
(5.24058 -0.694955 1.3588e-14)
(5.29976 -0.713079 5.88382e-15)
(5.59112 -0.840089 4.99142e-15)
(5.86022 -0.965766 3.12092e-15)
(6.15852 -1.08869 -6.81394e-15)
(6.44091 -1.20351 -5.69699e-15)
(6.75637 -1.30821 7.0639e-16)
(7.01733 -1.38186 -4.18309e-15)
(7.18586 -1.3897 5.19566e-16)
(7.29674 -1.32361 6.67742e-18)
(7.43922 -1.23341 1.30442e-15)
(7.6159 -1.20392 1.13585e-15)
(7.67439 -1.19647 -8.66746e-16)
(7.50405 -1.136 -3.57364e-16)
(6.95639 -0.991039 2.91193e-16)
(5.59849 -0.308705 -2.67839e-16)
(-1.12538 7.73161 1.64555e-16)
(-0.201034 7.51549 3.30141e-15)
(0.891677 6.50702 -4.83426e-15)
(1.60345 6.28183 -4.96599e-14)
(2.33368 6.56749 1.08436e-14)
(3.52502 6.70682 4.04592e-14)
(5.45219 5.86698 -4.38022e-14)
(7.29749 3.57314 1.1357e-14)
(7.99213 0.00738643 -3.58392e-14)
(7.32011 -3.50405 -6.9853e-15)
(6.19983 -4.93239 -5.64837e-14)
(4.52552 -3.94164 -2.10884e-14)
(3.49492 -1.85718 1.49808e-14)
(2.9662 0.0704203 -8.74062e-15)
(2.9236 0.847615 -3.01276e-15)
(2.84498 0.716222 3.92274e-14)
(2.55603 0.512475 6.6583e-15)
(2.21045 0.451932 1.51103e-15)
(2.18466 -0.0179698 -7.09151e-15)
(1.09876 -0.258048 1.17974e-15)
(0.701031 -0.216802 1.56449e-15)
(0.67037 -0.369767 6.1526e-16)
(1.11443 -0.485199 -1.69526e-15)
(1.65742 -0.605735 4.84595e-16)
(2.40558 -0.715342 -5.40108e-15)
(3.13746 -0.745305 -5.42453e-15)
(3.9814 -0.810902 1.28112e-15)
(4.88501 -0.925849 -2.68497e-15)
(5.72926 -1.05602 -1.21786e-15)
(6.48873 -1.19741 -1.48848e-16)
(7.11019 -1.33783 2.94216e-15)
(7.65925 -1.45555 -1.90366e-15)
(8.04319 -1.54849 6.63709e-16)
(8.26185 -1.58537 -2.26332e-15)
(8.42172 -1.55919 -2.67136e-15)
(8.59811 -1.49499 1.33771e-15)
(8.78093 -1.44826 -8.60973e-16)
(8.76505 -1.38849 -1.00362e-15)
(8.59513 -1.28958 1.04343e-16)
(8.12407 -1.07578 -1.57759e-16)
(7.09016 -0.570065 2.17923e-16)
(-0.677838 6.15991 -8.89701e-16)
(-0.00239726 6.04811 1.91158e-15)
(0.770784 5.37939 -3.09725e-16)
(1.36952 5.08379 -4.20264e-15)
(2.03645 4.97599 -4.73275e-16)
(2.92276 4.87514 1.26341e-14)
(4.03641 4.2066 2.05218e-15)
(5.00691 2.54107 -9.11491e-15)
(5.38957 0.0863707 6.2368e-14)
(4.94019 -2.18749 -7.57827e-15)
(3.92413 -3.18282 -1.07917e-14)
(2.82748 -2.78143 8.66218e-15)
(2.00655 -1.68234 -1.10389e-14)
(1.6132 -0.448785 2.48387e-14)
(1.68368 0.286 -1.77251e-14)
(1.89245 0.399044 -2.32042e-14)
(1.92009 0.222974 -1.52409e-15)
(1.37069 0.130596 -6.24202e-15)
(0.37889 0.198493 1.23504e-15)
(1.30465 -0.0322294 -8.22886e-15)
(1.35628 -0.250805 4.0502e-15)
(1.21911 -0.388876 -2.0696e-17)
(0.937613 -0.408391 -3.27879e-15)
(0.789959 -0.478728 -2.04005e-15)
(0.628932 -0.613781 -1.98842e-15)
(0.518 -0.696968 -7.70131e-16)
(0.578694 -0.722388 2.33161e-15)
(1.12858 -0.949894 -2.9779e-15)
(1.27312 -0.866868 -2.94829e-15)
(2.18701 -1.14782 2.27951e-15)
(3.10207 -1.3235 3.32061e-15)
(4.12016 -1.44506 3.2893e-15)
(5.26744 -1.60619 1.49053e-15)
(6.45461 -1.70041 -4.1171e-15)
(7.65795 -1.72713 -3.70277e-15)
(8.77996 -1.69776 -5.39447e-16)
(9.73673 -1.63916 2.26552e-15)
(10.2435 -1.52206 1.31104e-15)
(10.4132 -1.39099 4.53147e-16)
(10.0877 -1.08085 -2.26349e-16)
(9.36744 -0.844509 2.96413e-16)
(-0.351784 4.83763 -2.24633e-16)
(0.178614 4.79169 -1.66169e-15)
(0.751202 4.31403 1.77909e-15)
(1.22839 4.09674 5.06855e-15)
(1.7322 3.84899 2.13789e-14)
(2.31894 3.51772 1.51789e-14)
(3.07626 2.95532 -3.86011e-14)
(3.81756 1.92946 -4.78368e-14)
(4.15763 0.470286 -2.86253e-14)
(3.96672 -0.941537 3.01522e-14)
(3.37767 -1.68653 5.32821e-15)
(2.65217 -1.65917 -5.67044e-14)
(2.02397 -1.16017 3.52457e-14)
(1.60474 -0.44173 2.56461e-14)
(1.48189 0.118492 -4.30322e-14)
(1.55371 0.30563 8.67607e-15)
(1.60709 0.207438 3.48537e-14)
(1.52064 0.0462639 1.91811e-15)
(1.35081 -0.0463249 -5.96871e-15)
(1.2165 -0.0847766 -8.6892e-15)
(1.1428 -0.134836 1.75236e-16)
(1.23176 -0.284274 1.08131e-14)
(1.22437 -0.397181 -6.30617e-15)
(1.05376 -0.432776 -1.39347e-15)
(0.81922 -0.4606 -9.88879e-16)
(0.688656 -0.575199 -5.02815e-16)
(0.564931 -0.577876 1.07002e-15)
(0.152508 -0.758392 -2.70058e-15)
(0.0409553 -0.827361 1.80361e-15)
(-0.0328785 -0.884287 4.10757e-15)
(-0.190134 -1.07465 -2.56719e-15)
(-0.171925 -1.2191 -5.86068e-15)
(0.055423 -1.32351 -2.52311e-16)
(0.580113 -1.45907 2.55401e-15)
(1.44577 -1.59114 1.94451e-15)
(2.69332 -1.6796 1.08719e-17)
(4.27775 -1.68059 2.80646e-16)
(5.98356 -1.59265 1.31539e-16)
(7.76786 -1.47119 -7.62788e-17)
(9.08632 -1.04199 -2.45771e-17)
(10.5685 -0.856095 -2.66835e-17)
(-0.133179 3.74486 5.86394e-16)
(0.287594 3.73649 -2.81585e-16)
(0.727703 3.38791 1.59335e-15)
(1.09952 3.2151 1.36654e-15)
(1.49813 2.99263 -2.5333e-15)
(1.89644 2.6476 -8.94507e-16)
(2.32649 2.16299 1.44222e-14)
(2.77335 1.49417 1.77294e-14)
(3.10936 0.69816 -1.38554e-14)
(3.15265 -0.0571242 2.05921e-14)
(2.94234 -0.545064 5.13424e-14)
(2.57233 -0.670214 -1.12486e-14)
(2.17419 -0.547568 -3.64757e-14)
(1.81814 -0.266411 1.21208e-15)
(1.59124 0.0106292 7.12677e-15)
(1.5135 0.140218 -9.34609e-15)
(1.49327 0.0964907 -1.58278e-14)
(1.42593 -0.0227801 -2.42214e-15)
(1.29294 -0.111586 1.51332e-14)
(1.1456 -0.146883 -5.68472e-15)
(1.04602 -0.163954 7.0148e-16)
(1.0662 -0.227899 3.16428e-18)
(1.08077 -0.310926 4.87775e-16)
(1.07893 -0.38739 1.5909e-16)
(1.05675 -0.466207 -2.96062e-15)
(1.00535 -0.532881 -2.94794e-15)
(0.956049 -0.626315 4.0818e-15)
(0.772795 -0.595894 -8.02757e-16)
(0.823888 -0.851886 -1.92183e-15)
(0.538944 -0.824757 -2.84257e-15)
(0.294173 -0.900097 7.08403e-16)
(0.0169095 -1.0338 2.01773e-15)
(-0.301163 -1.10499 -9.41586e-16)
(-0.636028 -1.18844 -4.98523e-16)
(-0.95094 -1.30447 1.83783e-17)
(-1.16057 -1.39998 1.76163e-15)
(-1.1287 -1.47232 -1.34888e-16)
(-0.706937 -1.47456 -6.61696e-16)
(0.303993 -1.39112 -1.35002e-15)
(1.3439 -1.1598 2.8633e-16)
(4.18465 -0.867674 -7.26015e-17)
(-0.00262128 2.84846 2.14801e-17)
(0.326566 2.86747 -4.81782e-16)
(0.662299 2.61869 -1.96024e-16)
(0.947991 2.486 -4.82678e-15)
(1.24545 2.31056 -4.14414e-15)
(1.53365 2.0496 1.7882e-15)
(1.80524 1.69266 1.11522e-14)
(2.05219 1.24895 -2.19643e-14)
(2.25423 0.762291 -1.34841e-16)
(2.39286 0.358314 3.33049e-14)
(2.39414 0.0852921 -1.71727e-14)
(2.2708 -0.073408 3.25101e-14)
(2.07678 -0.126466 -1.3266e-15)
(1.84567 -0.0892175 -1.42204e-14)
(1.63578 -0.00286752 8.65798e-15)
(1.49819 0.0644546 -2.49247e-14)
(1.42353 0.0586462 1.24221e-14)
(1.35342 -0.00705194 4.53977e-15)
(1.24853 -0.0798771 -1.08025e-15)
(1.12313 -0.124994 1.35464e-15)
(1.01769 -0.147388 -4.82122e-15)
(1.01196 -0.202719 -1.97321e-15)
(1.00871 -0.273372 7.12934e-15)
(1.00499 -0.349383 -1.99768e-15)
(0.985947 -0.431996 -2.78788e-16)
(0.956625 -0.509145 1.16364e-15)
(0.919301 -0.579292 -5.87046e-16)
(0.878293 -0.648233 -1.01577e-15)
(0.832443 -0.716071 9.24641e-16)
(0.779145 -0.787769 -1.12921e-15)
(0.707938 -0.862743 1.37138e-15)
(0.604455 -0.933739 -1.14525e-16)
(0.470992 -1.03254 2.58127e-15)
(0.269935 -1.06959 3.62905e-16)
(-0.0177383 -1.08151 5.05434e-16)
(-0.399381 -1.09385 1.28999e-16)
(-0.83629 -1.14828 -2.52377e-16)
(-1.38202 -1.15346 1.37448e-15)
(-1.76198 -1.13171 3.83057e-16)
(-2.19555 -1.14445 -1.37817e-16)
(-1.47915 -0.797248 3.50974e-17)
(0.0608396 2.13332 -5.11421e-16)
(0.311078 2.16756 -3.90811e-16)
(0.563531 1.99504 -9.56674e-17)
(0.778217 1.90348 -5.12362e-15)
(0.994367 1.77908 4.22519e-15)
(1.19774 1.6 6.3896e-15)
(1.38422 1.37343 -1.22539e-14)
(1.5455 1.10733 5.99154e-15)
(1.67096 0.821934 3.44033e-16)
(1.77411 0.566033 -3.51889e-14)
(1.85982 0.401998 -1.91824e-14)
(1.87266 0.285696 -5.96806e-15)
(1.82059 0.185214 4.72633e-15)
(1.71086 0.120822 -1.43912e-14)
(1.57007 0.093268 -7.24771e-15)
(1.43966 0.0847925 3.03054e-14)
(1.34282 0.0640301 -1.10256e-14)
(1.26459 0.0134667 2.60766e-15)
(1.17743 -0.0521032 2.47461e-14)
(1.07558 -0.106762 -1.08597e-14)
(0.978059 -0.141736 -4.607e-16)
(0.963129 -0.199224 1.5355e-15)
(0.94847 -0.261546 -2.75399e-15)
(0.93347 -0.328581 5.60969e-15)
(0.91026 -0.404566 -2.86472e-15)
(0.877749 -0.478642 1.73537e-15)
(0.835828 -0.549386 4.41506e-15)
(0.788828 -0.614733 -1.17155e-15)
(0.740189 -0.678548 -4.95776e-17)
(0.688452 -0.741531 -4.29134e-16)
(0.630962 -0.803423 -1.75109e-15)
(0.569036 -0.861283 -1.15e-15)
(0.501449 -0.910908 -1.56138e-15)
(0.422703 -0.946038 6.00732e-16)
(0.328428 -0.967415 1.55432e-15)
(0.20499 -0.974996 -1.4016e-15)
(0.0358638 -0.963036 -9.18434e-16)
(-0.211031 -0.919843 -8.9107e-16)
(-0.534817 -0.868121 -7.01278e-17)
(-0.92489 -0.788394 -4.62129e-16)
(-1.36871 -0.553171 1.26948e-16)
(0.0823251 1.57454 7.89686e-17)
(0.267651 1.61655 1.65698e-16)
(0.452576 1.50235 5.7939e-17)
(0.610331 1.44616 -1.42745e-16)
(0.765198 1.36761 9.44173e-17)
(0.908071 1.25728 -5.63541e-16)
(1.03842 1.12292 2.76236e-15)
(1.15449 0.972717 3.5881e-15)
(1.25383 0.815559 2.59229e-14)
(1.33589 0.664935 6.29826e-15)
(1.41387 0.541236 -5.25269e-14)
(1.47825 0.452877 3.24282e-14)
(1.50769 0.364831 3.64825e-14)
(1.48662 0.275855 1.03897e-14)
(1.42055 0.197847 -1.40925e-14)
(1.33232 0.137812 -7.689e-15)
(1.24533 0.0880763 4.94098e-15)
(1.16741 0.0336003 -1.92426e-14)
(1.09072 -0.0261752 8.73006e-15)
(1.00705 -0.0829634 8.90112e-16)
(0.922829 -0.126357 -1.0693e-14)
(0.907621 -0.18731 5.99437e-16)
(0.887968 -0.244459 5.94696e-15)
(0.868655 -0.302937 3.41618e-15)
(0.844948 -0.368846 -9.60516e-15)
(0.814613 -0.434999 1.32522e-15)
(0.776107 -0.50048 4.25567e-15)
(0.731353 -0.561346 -3.94951e-15)
(0.680561 -0.61829 -1.59466e-15)
(0.624743 -0.673076 5.33873e-15)
(0.563563 -0.725234 -1.91319e-15)
(0.497102 -0.772756 -5.49238e-16)
(0.425848 -0.813599 1.07242e-15)
(0.349277 -0.841913 -3.88034e-16)
(0.270619 -0.86222 -6.50145e-16)
(0.191001 -0.869455 -2.54945e-16)
(0.110383 -0.858981 4.88164e-17)
(0.0323554 -0.815651 5.39471e-16)
(-0.0656058 -0.747105 -7.64836e-17)
(-0.129352 -0.656576 4.32618e-16)
(-0.306147 -0.539426 -1.34401e-16)
(0.0811956 1.14868 -2.79026e-17)
(0.215668 1.19225 -5.50472e-17)
(0.348726 1.12018 2.15302e-16)
(0.463013 1.09073 7.66184e-16)
(0.573632 1.04703 -5.07649e-16)
(0.675273 0.985173 2.91259e-16)
(0.769145 0.91148 -1.3486e-14)
(0.855862 0.830715 -1.23575e-14)
(0.936017 0.746793 4.87446e-15)
(1.01218 0.665028 2.03577e-15)
(1.08207 0.586109 4.39014e-15)
(1.14034 0.50868 -5.03246e-15)
(1.19606 0.435905 5.17512e-16)
(1.22525 0.357664 -1.47921e-14)
(1.21625 0.273314 -9.01849e-15)
(1.17595 0.19454 8.80017e-15)
(1.11837 0.124343 -1.05426e-14)
(1.05536 0.0604161 2.17184e-14)
(0.990356 -0.00150424 -1.57842e-15)
(0.921526 -0.0600657 -8.93963e-16)
(0.850847 -0.109393 5.34801e-16)
(0.838726 -0.174427 7.65066e-16)
(0.81862 -0.228786 -4.42961e-16)
(0.797212 -0.282094 -1.57458e-15)
(0.773102 -0.339843 1.87074e-15)
(0.777137 -0.40953 8.54676e-15)
(0.722969 -0.457018 5.07531e-16)
(0.674806 -0.507165 -2.55027e-15)
(0.630884 -0.556707 5.6721e-15)
(0.5814 -0.602706 -1.91187e-15)
(0.527084 -0.644867 1.6932e-15)
(0.468107 -0.682067 7.33886e-16)
(0.404462 -0.713405 -4.14262e-15)
(0.334822 -0.734041 1.46937e-15)
(0.260931 -0.74862 -3.61062e-16)
(0.185012 -0.754066 -3.73779e-16)
(0.109069 -0.748955 -5.59212e-18)
(0.0395082 -0.719436 -2.99358e-16)
(-0.0246506 -0.682356 2.08062e-17)
(-0.0629008 -0.62365 -1.73487e-17)
(-0.0888388 -0.565229 1.28083e-16)
(0.0703804 0.829591 1.66135e-16)
(0.166683 0.870519 2.79186e-16)
(0.261568 0.82775 -8.60248e-16)
(0.344255 0.815841 3.17174e-17)
(0.424007 0.794942 2.01212e-15)
(0.497886 0.763548 1.33205e-15)
(0.567515 0.726008 5.31372e-15)
(0.634181 0.684737 6.4018e-15)
(0.69886 0.64101 -4.71935e-15)
(0.76366 0.595995 -2.10267e-14)
(0.828101 0.548667 1.58656e-14)
(0.881621 0.492816 3.47225e-15)
(0.930194 0.431143 -3.62339e-14)
(0.972752 0.367019 1.6871e-14)
(0.99546 0.296022 2.79487e-14)
(0.990923 0.220706 -2.82943e-15)
(0.964487 0.147413 2.65067e-15)
(0.923901 0.0791445 -2.93888e-15)
(0.87538 0.015921 1.15168e-15)
(0.821825 -0.0418929 1.48128e-14)
(0.764803 -0.0924374 -6.04831e-15)
(0.758217 -0.156219 -1.33503e-14)
(0.740873 -0.206616 -6.7017e-15)
(0.720721 -0.254456 6.65495e-15)
(0.699926 -0.303635 7.84763e-15)
(0.674265 -0.351623 -1.43727e-15)
(0.647006 -0.397726 -1.01854e-16)
(0.614275 -0.443369 1.796e-16)
(0.577202 -0.485014 1.0073e-16)
(0.535821 -0.523002 -3.40368e-16)
(0.490351 -0.557099 -1.11432e-15)
(0.441537 -0.586526 1.05784e-15)
(0.389643 -0.611045 1.50307e-15)
(0.333555 -0.626582 -9.78679e-16)
(0.274932 -0.637427 -4.20901e-16)
(0.215059 -0.641072 -1.90855e-16)
(0.155202 -0.637597 1.66481e-15)
(0.0972282 -0.616399 -8.54945e-16)
(0.043218 -0.594118 5.04151e-18)
(1.95882e-05 -0.559695 4.71454e-16)
(-0.0281312 -0.526668 -7.70306e-17)
(0.057122 0.595615 -1.66985e-16)
(0.125663 0.630226 4.08583e-16)
(0.193085 0.606019 1.80492e-16)
(0.253187 0.604129 -1.50369e-15)
(0.311465 0.596573 2.07642e-16)
(0.366297 0.582641 -9.72623e-16)
(0.419096 0.565118 2.83088e-15)
(0.471012 0.545157 4.31746e-15)
(0.522795 0.522804 2.76442e-15)
(0.575823 0.498017 4.87512e-15)
(0.629842 0.469635 -1.97139e-14)
(0.678182 0.432838 1.73646e-14)
(0.721163 0.387095 2.15791e-14)
(0.757464 0.335115 -1.5869e-14)
(0.786385 0.278039 -8.13165e-15)
(0.80189 0.216754 -1.37775e-14)
(0.798484 0.15281 9.76368e-16)
(0.779597 0.0902673 2.58347e-16)
(0.749807 0.0315932 3.39049e-15)
(0.71223 -0.0223189 -2.55136e-15)
(0.669431 -0.0703166 -1.00981e-15)
(0.668765 -0.128913 4.10032e-15)
(0.65661 -0.174261 1.46244e-15)
(0.640676 -0.216659 -7.76691e-15)
(0.62197 -0.259198 1.51262e-16)
(0.601149 -0.299874 4.82557e-15)
(0.577784 -0.338097 -1.41189e-15)
(0.550475 -0.376291 -7.76832e-15)
(0.521228 -0.411039 5.08278e-15)
(0.487379 -0.442519 -2.03845e-15)
(0.450574 -0.470469 3.02842e-15)
(0.411197 -0.494469 -1.29565e-15)
(0.369964 -0.514248 -2.27327e-15)
(0.325997 -0.526942 1.66285e-15)
(0.281262 -0.536038 2.22801e-15)
(0.236715 -0.540056 -4.38547e-16)
(0.19332 -0.53912 -8.56533e-16)
(0.151021 -0.525238 4.89121e-16)
(0.112075 -0.512417 -4.21227e-16)
(0.0797858 -0.492358 -6.31442e-17)
(0.0522163 -0.474584 -1.42569e-16)
(0.0449916 0.425312 -7.43296e-17)
(0.0937907 0.454009 2.02788e-17)
(0.141776 0.440867 3.37141e-16)
(0.185656 0.443411 1.24168e-15)
(0.228641 0.44243 -5.62321e-17)
(0.269809 0.437439 7.72814e-16)
(0.310208 0.43015 7.74494e-17)
(0.350639 0.421076 -5.41371e-15)
(0.391538 0.409801 -1.74506e-15)
(0.433704 0.396009 2.83424e-15)
(0.476973 0.378805 -1.11681e-14)
(0.51696 0.354744 -7.68789e-15)
(0.554243 0.323742 1.70497e-14)
(0.585834 0.285682 -4.21231e-15)
(0.610724 0.241979 1.89047e-14)
(0.628695 0.19452 7.34373e-15)
(0.638327 0.144714 -1.30299e-14)
(0.635168 0.0940269 7.2172e-15)
(0.621072 0.0443714 -1.2865e-14)
(0.598353 -0.00263853 2.04848e-15)
(0.569069 -0.0454283 5.60138e-17)
(0.574539 -0.0962781 1.78694e-15)
(0.567848 -0.136103 -6.34625e-15)
(0.556508 -0.173909 -2.96373e-15)
(0.543 -0.210643 1.03417e-14)
(0.526882 -0.245398 -9.04935e-16)
(0.525466 -0.284192 -2.88405e-15)
(0.492546 -0.310618 -2.05411e-15)
(0.463589 -0.337627 6.64015e-15)
(0.438014 -0.363612 8.518e-16)
(0.409254 -0.386679 -3.79123e-15)
(0.378875 -0.406629 4.41433e-16)
(0.347217 -0.423039 3.28124e-16)
(0.31371 -0.434148 -4.0229e-16)
(0.280286 -0.442598 -1.16242e-15)
(0.247651 -0.447841 7.34061e-16)
(0.216391 -0.449842 8.44299e-16)
(0.185248 -0.442573 -2.43831e-16)
(0.157415 -0.437442 2.12146e-16)
(0.133634 -0.427459 2.11832e-16)
(0.113177 -0.419967 -2.11551e-16)
(0.0341224 0.299704 1.06807e-16)
(0.0689801 0.323598 -4.4464e-16)
(0.103427 0.317584 -1.1596e-16)
(0.135735 0.322014 -1.15427e-16)
(0.167703 0.324002 2.83778e-15)
(0.198804 0.323255 -1.10389e-15)
(0.229743 0.320916 -9.00781e-16)
(0.261024 0.317191 5.53364e-15)
(0.292864 0.311611 1.06139e-15)
(0.32571 0.303883 -8.52911e-15)
(0.359426 0.293394 -2.59293e-15)
(0.391185 0.277853 1.38312e-14)
(0.421447 0.257327 -9.47292e-15)
(0.448484 0.23152 -3.30149e-15)
(0.470456 0.200529 1.19385e-14)
(0.486627 0.165641 -3.69772e-15)
(0.496639 0.128061 9.5202e-15)
(0.502082 0.089479 -4.93874e-15)
(0.498644 0.0504531 -2.27107e-14)
(0.487432 0.0122503 2.54621e-14)
(0.469699 -0.0237303 1.66465e-15)
(0.479015 -0.0659157 -1.44949e-14)
(0.47714 -0.099653 2.6923e-15)
(0.471589 -0.131762 -2.17617e-16)
(0.463114 -0.162907 5.20846e-15)
(0.452736 -0.19238 1.34018e-15)
(0.439054 -0.219983 -1.9366e-14)
(0.424737 -0.245024 -5.34554e-15)
(0.406915 -0.269232 6.95177e-15)
(0.387483 -0.290914 5.10449e-16)
(0.366517 -0.310157 9.5689e-16)
(0.344236 -0.326884 -2.56045e-15)
(0.321155 -0.341035 4.24743e-16)
(0.296644 -0.351097 -1.59704e-17)
(0.272531 -0.359541 -1.51475e-18)
(0.249246 -0.365803 1.01537e-16)
(0.227162 -0.370235 1.33293e-16)
(0.204276 -0.367733 9.71949e-19)
(0.184379 -0.367855 -6.56275e-17)
(0.166553 -0.364406 -1.73577e-16)
(0.151495 -0.363149 1.17693e-16)
(0.0275504 0.229735 2.06493e-16)
(0.0540243 0.246071 -4.36806e-16)
(0.0798547 0.242759 5.39966e-16)
(0.104441 0.246065 -1.04275e-15)
(0.128774 0.247615 6.80468e-16)
(0.152568 0.247297 -3.40882e-15)
(0.176336 0.245865 -7.53304e-15)
(0.200376 0.24341 6.61253e-15)
(0.224804 0.239529 1.35263e-14)
(0.249896 0.23406 -5.72827e-15)
(0.27556 0.226594 -7.19784e-15)
(0.29997 0.215648 9.72818e-16)
(0.323475 0.201308 3.16347e-15)
(0.345047 0.183295 -1.26866e-15)
(0.363599 0.161617 -1.0278e-16)
(0.378061 0.136548 -6.90669e-16)
(0.387586 0.108883 1.04639e-14)
(0.393002 0.0796803 -2.2802e-15)
(0.394384 0.0498129 -1.62884e-14)
(0.390337 0.0199515 1.15471e-14)
(0.380517 -0.00898717 5.74299e-15)
(0.392412 -0.0423313 4.00392e-15)
(0.394311 -0.0697083 -1.05355e-14)
(0.39252 -0.0963038 1.07428e-15)
(0.388693 -0.122082 1.64201e-16)
(0.382399 -0.146614 1.84696e-17)
(0.374354 -0.169612 -2.23368e-17)
(0.365087 -0.190223 -2.41747e-16)
(0.3521 -0.210786 1.62949e-17)
(0.339234 -0.228794 1.2035e-16)
(0.32448 -0.245012 -2.50259e-16)
(0.308866 -0.259293 1.18891e-15)
(0.292552 -0.271757 6.76824e-16)
(0.275001 -0.281183 -1.96837e-15)
(0.257857 -0.289653 4.28876e-16)
(0.241422 -0.296632 -5.06637e-16)
(0.225959 -0.302562 -3.0427e-16)
(0.209173 -0.303261 7.47893e-16)
(0.195036 -0.306494 -1.38319e-16)
(0.181801 -0.30703 -4.66564e-18)
(0.170812 -0.309223 -1.16806e-17)
(0.022916 0.182413 -1.05138e-17)
(0.0437597 0.193227 2.15171e-16)
(0.0638314 0.191003 4.34031e-16)
(0.0830993 0.193043 -1.96591e-15)
(0.102064 0.193775 -1.69704e-16)
(0.120641 0.193167 -1.89788e-15)
(0.139167 0.191781 1.76715e-15)
(0.157881 0.18961 -3.84666e-16)
(0.176812 0.186394 -5.49987e-15)
(0.19618 0.182011 2.8766e-15)
(0.215905 0.176231 1.31064e-14)
(0.234786 0.168041 4.34994e-16)
(0.253076 0.157545 -1.08432e-14)
(0.270137 0.144497 2.25379e-15)
(0.285238 0.128856 -7.39974e-15)
(0.297707 0.11069 -1.56517e-14)
(0.306868 0.0903885 7.80356e-15)
(0.312219 0.0684498 1.18497e-14)
(0.314184 0.0456191 4.7676e-15)
(0.31252 0.0224974 -2.00569e-15)
(0.307746 -0.000244075 -1.05714e-14)
(0.319782 -0.0262624 9.04031e-15)
(0.323826 -0.0480514 -1.81973e-15)
(0.325296 -0.0694838 1.71403e-16)
(0.324181 -0.0906423 4.08397e-16)
(0.32154 -0.110651 -2.78325e-15)
(0.317304 -0.129524 -2.14164e-15)
(0.318181 -0.149277 6.88928e-15)
(0.307089 -0.164034 -1.12516e-15)
(0.295454 -0.178879 -5.25589e-15)
(0.285912 -0.192727 4.80199e-15)
(0.275213 -0.205159 -2.64835e-15)
(0.264034 -0.216284 -6.46733e-18)
(0.251662 -0.225148 3.08145e-15)
(0.239669 -0.233415 -3.71804e-15)
(0.228188 -0.240622 2.12326e-15)
(0.217473 -0.247201 1.21709e-15)
(0.205154 -0.249792 -1.67232e-15)
(0.195156 -0.254617 6.9531e-16)
(0.185376 -0.257396 -1.97274e-16)
(0.177434 -0.261313 2.49108e-16)
(0.0191158 0.146721 -9.49907e-17)
(0.0359512 0.154088 4.38688e-16)
(0.0519217 0.152356 -3.41737e-19)
(0.0673379 0.15348 -8.17116e-16)
(0.0824045 0.153578 2.40643e-16)
(0.0971424 0.152695 -4.80346e-16)
(0.111806 0.151245 -3.74953e-16)
(0.126563 0.149213 3.25416e-15)
(0.141447 0.146402 -1.4246e-15)
(0.156597 0.142763 -5.43835e-15)
(0.171996 0.138123 3.80306e-15)
(0.186791 0.131821 6.6698e-15)
(0.201192 0.123891 -5.91198e-15)
(0.214754 0.114195 9.00675e-15)
(0.227024 0.102637 3.29545e-15)
(0.237478 0.0892537 -1.29177e-14)
(0.245673 0.0741946 -1.39215e-14)
(0.251192 0.0577849 1.1405e-14)
(0.253714 0.0403916 -8.75768e-16)
(0.253238 0.0225297 8.43677e-16)
(0.249914 0.00467079 -7.99625e-16)
(0.260949 -0.0153207 1.34808e-16)
(0.265889 -0.0325205 -1.20063e-16)
(0.268489 -0.0497756 2.67372e-16)
(0.270076 -0.0665974 7.54645e-16)
(0.269964 -0.082711 4.08482e-16)
(0.268252 -0.0982202 -3.15832e-16)
(0.265411 -0.112758 1.35198e-15)
(0.263221 -0.125991 8.06094e-16)
(0.256689 -0.139341 -3.09606e-15)
(0.250286 -0.1512 -1.06007e-16)
(0.24351 -0.162063 2.11721e-15)
(0.23617 -0.171917 -7.25126e-16)
(0.227768 -0.180177 -3.53704e-15)
(0.219609 -0.187966 2.86635e-15)
(0.211781 -0.195105 3.64634e-16)
(0.204481 -0.201755 6.29925e-17)
(0.195492 -0.205458 -1.26487e-15)
(0.188515 -0.210934 5.31809e-16)
(0.181387 -0.214972 -1.58981e-16)
(0.175827 -0.219614 2.40942e-16)
(0.0159722 0.119184 2.00239e-18)
(0.0297153 0.12422 -8.68967e-17)
(0.0427054 0.122802 -5.22188e-16)
(0.0551866 0.123278 1.17324e-15)
(0.067359 0.122946 4.94237e-17)
(0.0791849 0.121874 -7.21321e-16)
(0.0909466 0.120374 -7.24861e-16)
(0.102706 0.11845 1.49344e-15)
(0.114548 0.11594 -2.50243e-15)
(0.126546 0.112846 -1.35064e-15)
(0.138717 0.10903 -1.51456e-15)
(0.150458 0.104047 -3.86138e-16)
(0.161926 0.0979212 5.23504e-15)
(0.172816 0.0905335 4.93982e-15)
(0.182799 0.0818199 1.74461e-15)
(0.191523 0.0717493 -7.51296e-15)
(0.198633 0.0604358 1.29473e-15)
(0.203818 0.0480097 1.54149e-15)
(0.206798 0.0347564 1.41215e-16)
(0.207437 0.0209535 -8.90549e-16)
(0.205513 0.00705369 7.63568e-16)
(0.214455 -0.00852965 -1.63125e-16)
(0.218837 -0.0222068 2.0049e-16)
(0.22216 -0.0356249 -1.41494e-15)
(0.224584 -0.048971 2.28525e-15)
(0.22616 -0.0619274 3.05106e-15)
(0.226646 -0.0743849 -8.10409e-15)
(0.225654 -0.0864345 -6.07904e-16)
(0.226237 -0.0985441 5.10726e-15)
(0.223714 -0.108664 -2.40006e-15)
(0.218227 -0.118956 5.91638e-16)
(0.21399 -0.128438 2.6678e-15)
(0.209476 -0.137151 -9.7506e-16)
(0.203965 -0.144712 1.05463e-15)
(0.198606 -0.151959 -1.82721e-15)
(0.193441 -0.158762 -4.71253e-17)
(0.188612 -0.165231 -3.41532e-16)
(0.182144 -0.169426 1.02741e-15)
(0.17741 -0.175068 -1.61581e-16)
(0.172364 -0.179631 -5.8526e-17)
(0.16866 -0.184505 -2.07961e-17)
(0.0133664 0.0975075 -3.65051e-17)
(0.0247085 0.101007 -1.69219e-17)
(0.0353721 0.0997339 -3.84954e-16)
(0.0456032 0.0998058 3.56396e-16)
(0.0555226 0.0991936 7.39843e-16)
(0.0651297 0.0980234 1.38777e-16)
(0.0746376 0.0965277 -1.13429e-15)
(0.0841205 0.0947152 2.23951e-15)
(0.0936194 0.0924702 -5.33684e-15)
(0.103236 0.0898013 3.50469e-15)
(0.112951 0.0866214 8.78126e-15)
(0.122384 0.0826017 -6.2019e-15)
(0.131598 0.0777742 -4.27593e-15)
(0.140437 0.0720267 4.71821e-15)
(0.148608 0.0653324 9.69619e-15)
(0.155891 0.057608 1.39858e-15)
(0.161982 0.048964 -4.75257e-15)
(0.166668 0.0394157 -1.16541e-14)
(0.169693 0.0292023 4.3996e-15)
(0.17093 0.0184391 4.48654e-15)
(0.170065 0.0074405 2.63473e-15)
(0.177812 -0.00470784 4.09309e-15)
(0.182092 -0.0152796 -9.91495e-15)
(0.185482 -0.0258784 -5.44807e-16)
(0.188398 -0.0364444 4.68099e-15)
(0.190367 -0.0467824 -3.47758e-15)
(0.19147 -0.0570135 -1.2992e-15)
(0.191833 -0.0669145 4.50798e-15)
(0.191554 -0.0763637 -2.26678e-15)
(0.193803 -0.0852112 -4.63979e-15)
(0.18908 -0.0940561 7.80776e-17)
(0.187005 -0.102205 1.69394e-15)
(0.184408 -0.109851 -1.26439e-16)
(0.181025 -0.116643 -8.17018e-16)
(0.177723 -0.123263 -4.99144e-16)