/*--------------------------------*- C++ -*----------------------------------*\
| =========                 |                                                 |
| \\      /  F ield         | OpenFOAM: The Open Source CFD Toolbox           |
|  \\    /   O peration     | Version:  2312                                  |
|   \\  /    A nd           | Website:  www.openfoam.com                      |
|    \\/     M anipulation  |                                                 |
\*---------------------------------------------------------------------------*/
FoamFile
{
    version     2.0;
    format      ascii;
    arch        "LSB;label=32;scalar=64";
    class       volScalarField;
    location    "200";
    object      nuTilda;
}
// * * * * * * * * * * * * * * * * * * * * * * * * * * * * * * * * * * * * * //

dimensions      [0 2 -1 0 0 0 0];

internalField   nonuniform List<scalar> 
11040
(
6.47169e-05
9.03737e-05
0.000128655
0.00018896
0.000317389
0.000745172
0.000832885
0.00084468
0.00091713
0.00132476
0.00157429
0.00175705
0.00184795
0.0018169
0.00180104
0.00180585
0.00181664
0.00182384
0.0018239
0.00181635
0.00179824
0.00177077
0.00174111
0.00171166
0.00168147
0.00164932
0.00161457
0.00157681
0.00153527
0.00148911
0.00143747
0.00137952
0.00131433
0.00124006
0.00114843
0.000984249
0.000754294
0.000686647
0.000623998
0.000592108
0.000740989
3.83406e-05
4.02912e-05
6.19774e-05
0.000110119
0.000183366
0.000408963
0.000745459
0.00122369
0.00200932
0.00304774
0.00374684
0.0040969
0.00426468
0.00434624
0.00439239
0.00440077
0.00436267
0.00428552
0.00418978
0.00409382
0.00400222
0.00392263
0.00385187
0.00378278
0.00371642
0.00365712
0.00360587
0.00356109
0.00352078
0.00348374
0.00344942
0.00341753
0.00338765
0.00335817
0.00332461
0.00326476
0.00316521
0.0030987
0.0030712
0.00305013
0.00374954
4.05513e-05
4.09349e-05
3.99071e-05
4.59263e-05
6.16604e-05
0.000105322
0.00021497
0.000400144
0.00067794
0.00106786
0.00160494
0.00226704
0.0030039
0.0037393
0.00438475
0.0048746
0.00519589
0.00538672
0.00550612
0.00560096
0.00568399
0.00574822
0.0057938
0.00582453
0.00584439
0.00585929
0.00587162
0.00588112
0.00588645
0.00588714
0.00588357
0.0058767
0.00586764
0.00585637
0.00584223
0.00582013
0.00579004
0.00576293
0.00576307
0.00571882
0.00622097
4.01374e-05
4.02507e-05
4.01716e-05
3.89153e-05
3.77741e-05
3.43615e-05
3.78458e-05
5.65031e-05
8.97153e-05
0.00013713
0.000199486
0.000284693
0.000426426
0.000675704
0.00108015
0.00166162
0.00240127
0.00323673
0.00407888
0.00483852
0.00545727
0.00591133
0.00623118
0.0064758
0.00668062
0.00686188
0.0070244
0.00716906
0.00729674
0.00740966
0.00751065
0.0076023
0.00768642
0.00776348
0.00783329
0.00789402
0.00794834
0.00799522
0.00806188
0.00808357
0.00839725
4.01456e-05
4.01516e-05
4.02158e-05
4.01116e-05
3.95672e-05
3.72679e-05
3.18499e-05
2.39889e-05
1.66591e-05
3.27544e-05
1.34773e-05
1.71028e-05
1.089e-05
1.87068e-05
3.40046e-05
7.4957e-05
0.00017712
0.000387056
0.000755419
0.00131738
0.00208431
0.00296754
0.00384321
0.00465305
0.00536575
0.00597158
0.0064801
0.00690961
0.00728067
0.00761127
0.00791455
0.00819848
0.00846684
0.00872125
0.00896167
0.00918646
0.0093974
0.00959307
0.00979392
0.00996504
0.0102038
4.00958e-05
4.00993e-05
4.01034e-05
4.01163e-05
4.01285e-05
4.00899e-05
3.9457e-05
3.74975e-05
3.44622e-05
2.98724e-05
2.68731e-05
2.41014e-05
2.18233e-05
1.92397e-05
1.26371e-05
1.13091e-05
3.47751e-07
8.50151e-05
0.000163655
2.21912e-05
0.000123335
0.00033703
0.000667252
0.00111876
0.00168696
0.002349
0.00307898
0.00384683
0.00462408
0.0053866
0.00611693
0.00680476
0.00744643
0.00804531
0.00860616
0.00913253
0.00962874
0.0100997
0.0105541
0.0109826
0.0113795
4.00877e-05
4.00935e-05
4.00993e-05
4.01061e-05
4.01096e-05
4.01392e-05
4.0241e-05
4.03448e-05
4.03078e-05
4.02081e-05
3.95144e-05
3.90799e-05
3.85479e-05
3.79717e-05
3.73469e-05
3.62861e-05
3.40556e-05
2.93905e-05
2.3049e-05
3.46131e-07
3.19232e-05
8.36961e-06
2.78077e-05
5.09647e-05
9.31142e-05
0.000188884
0.000363957
0.000629078
0.000995759
0.00147792
0.00207875
0.00279303
0.00360993
0.00451435
0.00548343
0.00648748
0.00749461
0.00848788
0.00944281
0.0103378
0.0112263
4.00863e-05
4.00915e-05
4.00947e-05
4.00981e-05
4.01018e-05
4.01033e-05
4.01117e-05
4.0158e-05
4.0253e-05
4.04061e-05
4.05507e-05
4.06738e-05
4.07658e-05
4.08336e-05
4.0896e-05
4.09624e-05
4.10767e-05
4.07894e-05
4.04729e-05
3.87635e-05
3.46369e-05
2.85088e-05
2.32858e-05
4.06905e-06
2.36617e-05
4.22164e-05
1.57842e-05
0.00012595
3.1084e-05
9.73996e-05
0.000158486
0.000290538
0.000526127
0.0008873
0.00140732
0.00210788
0.00299125
0.00406422
0.00529963
0.00661823
0.00821528
4.00847e-05
4.00884e-05
4.00899e-05
4.00913e-05
4.00931e-05
4.00954e-05
4.00973e-05
4.00982e-05
4.01023e-05
4.01157e-05
4.01446e-05
4.01873e-05
4.02394e-05
4.02974e-05
4.03592e-05
4.04401e-05
4.05381e-05
4.06741e-05
4.08016e-05
4.11094e-05
4.1118e-05
4.01003e-05
3.8697e-05
3.63498e-05
3.39381e-05
3.01135e-05
2.56982e-05
1.7564e-05
2.32049e-06
2.22016e-05
3.20679e-05
5.5507e-05
1.49215e-05
3.60006e-05
6.44671e-05
0.000135868
0.000307878
0.000636647
0.00117379
0.00189283
0.00315563
4.00827e-05
4.00843e-05
4.00838e-05
4.00832e-05
4.00832e-05
4.00838e-05
4.0085e-05
4.00861e-05
4.00866e-05
4.00849e-05
4.0082e-05
4.00804e-05
4.00808e-05
4.00835e-05
4.00881e-05
4.0094e-05
4.01053e-05
4.01297e-05
4.01597e-05
4.02317e-05
4.03721e-05
4.05469e-05
4.06408e-05
4.08954e-05
4.08188e-05
4.05232e-05
3.95153e-05
3.85895e-05
3.55387e-05
3.25901e-05
2.89174e-05
2.34949e-05
1.66838e-05
1.20031e-05
1.4234e-05
2.468e-05
5.00357e-05
0.000103851
4.21222e-05
8.54601e-05
0.000349466
4.00797e-05
4.0079e-05
4.00768e-05
4.0075e-05
4.0074e-05
4.00738e-05
4.00742e-05
4.0075e-05
4.00757e-05
4.00763e-05
4.00757e-05
4.0075e-05
4.00742e-05
4.00731e-05
4.00719e-05
4.00701e-05
4.00679e-05
4.00652e-05
4.00634e-05
4.00615e-05
4.00628e-05
4.00839e-05
4.01246e-05
4.01957e-05
4.02916e-05
4.04203e-05
4.05408e-05
4.0662e-05
4.08115e-05
4.06843e-05
4.02977e-05
3.92349e-05
3.72774e-05
3.39781e-05
3.00742e-05
2.46173e-05
1.44623e-05
5.75868e-06
9.26672e-06
1.45609e-05
4.93509e-05
4.00756e-05
4.0073e-05
4.007e-05
4.0068e-05
4.00669e-05
4.00666e-05
4.00667e-05
4.00671e-05
4.00676e-05
4.00681e-05
4.00682e-05
4.00682e-05
4.00685e-05
4.0069e-05
4.00697e-05
4.00703e-05
4.00708e-05
4.00709e-05
4.00706e-05
4.00696e-05
4.00669e-05
4.00627e-05
4.00597e-05
4.00578e-05
4.00603e-05
4.00687e-05
4.00928e-05
4.01287e-05
4.01962e-05
4.02924e-05
4.04168e-05
4.05474e-05
4.06768e-05
4.08139e-05
4.06439e-05
3.99956e-05
3.8178e-05
3.40878e-05
2.81557e-05
2.20555e-05
7.8492e-06
4.00706e-05
4.00671e-05
4.00646e-05
4.00633e-05
4.00628e-05
4.00627e-05
4.0063e-05
4.00634e-05
4.00639e-05
4.00642e-05
4.00646e-05
4.00644e-05
4.00644e-05
4.00647e-05
4.00652e-05
4.00659e-05
4.00667e-05
4.00677e-05
4.00686e-05
4.00697e-05
4.00705e-05
4.00707e-05
4.00703e-05
4.00692e-05
4.00675e-05
4.00652e-05
4.00626e-05
4.00603e-05
4.00586e-05
4.00617e-05
4.00724e-05
4.00974e-05
4.01412e-05
4.02356e-05
4.03803e-05
4.0578e-05
4.07916e-05
4.0988e-05
4.05058e-05
4.00777e-05
3.66397e-05
4.00654e-05
4.00626e-05
4.00612e-05
4.00609e-05
4.00611e-05
4.00614e-05
4.00617e-05
4.00621e-05
4.00625e-05
4.00629e-05
4.00632e-05
4.00634e-05
4.00632e-05
4.00633e-05
4.00634e-05
4.00638e-05
4.00643e-05
4.00649e-05
4.00655e-05
4.00664e-05
4.00672e-05
4.00679e-05
4.00685e-05
4.0069e-05
4.00694e-05
4.00697e-05
4.00698e-05
4.00695e-05
4.00688e-05
4.00674e-05
4.00652e-05
4.00624e-05
4.00594e-05
4.00581e-05
4.0063e-05
4.00863e-05
4.01353e-05
4.02493e-05
4.04344e-05
4.06858e-05
4.09848e-05
4.0061e-05
4.00599e-05
4.00599e-05
4.00603e-05
4.00607e-05
4.0061e-05
4.00612e-05
4.00615e-05
4.00618e-05
4.00621e-05
4.00624e-05
4.00627e-05
4.00629e-05
4.0063e-05
4.00629e-05
4.00629e-05
4.0063e-05
4.00633e-05
4.00636e-05
4.00641e-05
4.00646e-05
4.00649e-05
4.00652e-05
4.00655e-05
4.00659e-05
4.00662e-05
4.00666e-05
4.00669e-05
4.00673e-05
4.00676e-05
4.00678e-05
4.00678e-05
4.00674e-05
4.00661e-05
4.00637e-05
4.00602e-05
4.00562e-05
4.00519e-05
4.00631e-05
4.00765e-05
4.01875e-05
4.00579e-05
4.00592e-05
4.00598e-05
4.00601e-05
4.00603e-05
4.00604e-05
4.00605e-05
4.00605e-05
4.00607e-05
4.00608e-05
4.0061e-05
4.00612e-05
4.00614e-05
4.00616e-05
4.00618e-05
4.0062e-05
4.0062e-05
4.00619e-05
4.0062e-05
4.00621e-05
4.00622e-05
4.00622e-05
4.00622e-05
4.00621e-05
4.00621e-05
4.00621e-05
4.00621e-05
4.00621e-05
4.00621e-05
4.00621e-05
4.00622e-05
4.00623e-05
4.00624e-05
4.00625e-05
4.00625e-05
4.00623e-05
4.00617e-05
4.00598e-05
4.0057e-05
4.00514e-05
4.00478e-05
4.00562e-05
4.00589e-05
4.00596e-05
4.00597e-05
4.00596e-05
4.00595e-05
4.00593e-05
4.00592e-05
4.0059e-05
4.00588e-05
4.00588e-05
4.00588e-05
4.00588e-05
4.00589e-05
4.00588e-05
4.00588e-05
4.00588e-05
4.0059e-05
4.00591e-05
4.00594e-05
4.00596e-05
4.00599e-05
4.006e-05
4.00602e-05
4.00603e-05
4.00604e-05
4.00605e-05
4.00606e-05
4.00607e-05
4.00607e-05
4.00608e-05
4.00608e-05
4.00609e-05
4.00609e-05
4.0061e-05
4.0061e-05
4.00611e-05
4.00611e-05
4.0061e-05
4.00608e-05
4.00596e-05
4.0055e-05
4.00581e-05
4.00588e-05
4.00588e-05
4.00587e-05
4.00585e-05
4.00584e-05
4.00583e-05
4.00583e-05
4.00584e-05
4.00585e-05
4.00587e-05
4.00589e-05
4.00591e-05
4.00593e-05
4.00596e-05
4.00599e-05
4.00603e-05
4.00606e-05
4.0061e-05
4.00615e-05
4.00619e-05
4.00623e-05
4.00626e-05
4.0063e-05
4.00633e-05
4.00636e-05
4.00639e-05
4.00642e-05
4.00645e-05
4.00647e-05
4.0065e-05
4.00652e-05
4.00654e-05
4.00656e-05
4.00658e-05
4.0066e-05
4.00662e-05
4.00664e-05
4.00664e-05
4.00669e-05
4.0054e-05
4.00571e-05
4.00576e-05
4.00573e-05
4.0057e-05
4.00567e-05
4.00565e-05
4.00564e-05
4.00564e-05
4.00564e-05
4.00565e-05
4.00567e-05
4.00569e-05
4.00571e-05
4.00573e-05
4.00575e-05
4.00578e-05
4.00581e-05
4.00585e-05
4.00588e-05
4.00592e-05
4.00597e-05
4.00601e-05
4.00604e-05
4.00608e-05
4.00612e-05
4.00616e-05
4.00619e-05
4.00623e-05
4.00626e-05
4.0063e-05
4.00633e-05
4.00637e-05
4.00641e-05
4.00644e-05
4.00648e-05
4.00651e-05
4.00655e-05
4.00659e-05
4.00662e-05
4.00668e-05
4.00535e-05
4.00562e-05
4.00564e-05
4.00559e-05
4.00555e-05
4.00551e-05
4.0055e-05
4.00549e-05
4.00549e-05
4.0055e-05
4.00551e-05
4.00553e-05
4.00554e-05
4.00557e-05
4.00559e-05
4.00562e-05
4.00564e-05
4.00567e-05
4.0057e-05
4.00573e-05
4.00577e-05
4.0058e-05
4.00584e-05
4.00587e-05
4.0059e-05
4.00593e-05
4.00595e-05
4.00598e-05
4.00601e-05
4.00604e-05
4.00606e-05
4.00609e-05
4.00612e-05
4.00615e-05
4.00617e-05
4.0062e-05
4.00623e-05
4.00626e-05
4.00629e-05
4.00632e-05
4.00636e-05
4.0053e-05
4.00552e-05
4.00551e-05
4.00545e-05
4.0054e-05
4.00537e-05
4.00536e-05
4.00535e-05
4.00536e-05
4.00537e-05
4.00539e-05
4.00541e-05
4.00543e-05
4.00545e-05
4.00548e-05
4.0055e-05
4.00553e-05
4.00556e-05
4.00559e-05
4.00562e-05
4.00566e-05
4.00569e-05
4.00572e-05
4.00575e-05
4.00578e-05
4.0058e-05
4.00583e-05
4.00586e-05
4.00588e-05
4.0059e-05
4.00593e-05
4.00595e-05
4.00597e-05
4.006e-05
4.00602e-05
4.00604e-05
4.00606e-05
4.00609e-05
4.00611e-05
4.00613e-05
4.00616e-05
4.00525e-05
4.00541e-05
4.00537e-05
4.00531e-05
4.00526e-05
4.00524e-05
4.00523e-05
4.00523e-05
4.00524e-05
4.00526e-05
4.00528e-05
4.00531e-05
4.00533e-05
4.00536e-05
4.00539e-05
4.00541e-05
4.00544e-05
4.00547e-05
4.00551e-05
4.00554e-05
4.00557e-05
4.0056e-05
4.00563e-05
4.00566e-05
4.00569e-05
4.00572e-05
4.00574e-05
4.00577e-05
4.00579e-05
4.00582e-05
4.00584e-05
4.00586e-05
4.00588e-05
4.0059e-05
4.00593e-05
4.00595e-05
4.00597e-05
4.00599e-05
4.00601e-05
4.00603e-05
4.00605e-05
4.00518e-05
4.00529e-05
4.00524e-05
4.00518e-05
4.00514e-05
4.00512e-05
4.00512e-05
4.00513e-05
4.00514e-05
4.00517e-05
4.00519e-05
4.00522e-05
4.00525e-05
4.00528e-05
4.00531e-05
4.00534e-05
4.00537e-05
4.0054e-05
4.00544e-05
4.00547e-05
4.0055e-05
4.00554e-05
4.00557e-05
4.0056e-05
4.00563e-05
4.00565e-05
4.00568e-05
4.00571e-05
4.00573e-05
4.00575e-05
4.00578e-05
4.0058e-05
4.00582e-05
4.00584e-05
4.00586e-05
4.00588e-05
4.0059e-05
4.00593e-05
4.00594e-05
4.00597e-05
4.00598e-05
4.0051e-05
4.00517e-05
4.00511e-05
4.00505e-05
4.00502e-05
4.00501e-05
4.00502e-05
4.00503e-05
4.00505e-05
4.00508e-05
4.00511e-05
4.00514e-05
4.00518e-05
4.00521e-05
4.00524e-05
4.00528e-05
4.00531e-05
4.00534e-05
4.00538e-05
4.00541e-05
4.00545e-05
4.00548e-05
4.00552e-05
4.00555e-05
4.00558e-05
4.00561e-05
4.00563e-05
4.00566e-05
4.00568e-05
4.00571e-05
4.00573e-05
4.00576e-05
4.00578e-05
4.0058e-05
4.00582e-05
4.00584e-05
4.00586e-05
4.00588e-05
4.0059e-05
4.00593e-05
4.00593e-05
4.005e-05
4.00504e-05
4.00498e-05
4.00493e-05
4.00491e-05
4.00491e-05
4.00492e-05
4.00494e-05
4.00497e-05
4.005e-05
4.00504e-05
4.00507e-05
4.00511e-05
4.00515e-05
4.00518e-05
4.00522e-05
4.00526e-05
4.00529e-05
4.00533e-05
4.00536e-05
4.0054e-05
4.00544e-05
4.00547e-05
4.0055e-05
4.00554e-05
4.00557e-05
4.00559e-05
4.00562e-05
4.00565e-05
4.00567e-05
4.0057e-05
4.00572e-05
4.00575e-05
4.00577e-05
4.00579e-05
4.00581e-05
4.00583e-05
4.00586e-05
4.00587e-05
4.0059e-05
4.00591e-05
4.0049e-05
4.00491e-05
4.00485e-05
4.00481e-05
4.0048e-05
4.00481e-05
4.00483e-05
4.00486e-05
4.00489e-05
4.00493e-05
4.00497e-05
4.00501e-05
4.00505e-05
4.00509e-05
4.00513e-05
4.00517e-05
4.0052e-05
4.00524e-05
4.00528e-05
4.00532e-05
4.00536e-05
4.0054e-05
4.00543e-05
4.00547e-05
4.0055e-05
4.00553e-05
4.00556e-05
4.00559e-05
4.00562e-05
4.00564e-05
4.00567e-05
4.00569e-05
4.00572e-05
4.00574e-05
4.00577e-05
4.00579e-05
4.00581e-05
4.00583e-05
4.00585e-05
4.00588e-05
4.00588e-05
4.00478e-05
4.00478e-05
4.00473e-05
4.0047e-05
4.00469e-05
4.00471e-05
4.00474e-05
4.00477e-05
4.00481e-05
4.00485e-05
4.0049e-05
4.00494e-05
4.00498e-05
4.00503e-05
4.00507e-05
4.00511e-05
4.00515e-05
4.00519e-05
4.00523e-05
4.00527e-05
4.00531e-05
4.00535e-05
4.00539e-05
4.00543e-05
4.00546e-05
4.00549e-05
4.00553e-05
4.00556e-05
4.00559e-05
4.00561e-05
4.00564e-05
4.00567e-05
4.00569e-05
4.00572e-05
4.00574e-05
4.00576e-05
4.00579e-05
4.00581e-05
4.00583e-05
4.00586e-05
4.00586e-05
4.00466e-05
4.00465e-05
4.0046e-05
4.00458e-05
4.00459e-05
4.00461e-05
4.00464e-05
4.00469e-05
4.00473e-05
4.00478e-05
4.00482e-05
4.00487e-05
4.00492e-05
4.00496e-05
4.00501e-05
4.00505e-05
4.0051e-05
4.00514e-05
4.00518e-05
4.00523e-05
4.00527e-05
4.00531e-05
4.00535e-05
4.00538e-05
4.00542e-05
4.00545e-05
4.00549e-05
4.00552e-05
4.00555e-05
4.00558e-05
4.00561e-05
4.00563e-05
4.00566e-05
4.00568e-05
4.00571e-05
4.00573e-05
4.00576e-05
4.00578e-05
4.0058e-05
4.00583e-05
4.00584e-05
4.00454e-05
4.00452e-05
4.00448e-05
4.00447e-05
4.00448e-05
4.00451e-05
4.00455e-05
4.0046e-05
4.00464e-05
4.00469e-05
4.00474e-05
4.00479e-05
4.00484e-05
4.00489e-05
4.00494e-05
4.00499e-05
4.00503e-05
4.00508e-05
4.00512e-05
4.00517e-05
4.00521e-05
4.00525e-05
4.00529e-05
4.00533e-05
4.00537e-05
4.00541e-05
4.00544e-05
4.00547e-05
4.0055e-05
4.00553e-05
4.00556e-05
4.00559e-05
4.00562e-05
4.00564e-05
4.00567e-05
4.00569e-05
4.00572e-05
4.00574e-05
4.00576e-05
4.00579e-05
4.0058e-05
4.0044e-05
4.00438e-05
4.00435e-05
4.00435e-05
4.00437e-05
4.00441e-05
4.00445e-05
4.0045e-05
4.00455e-05
4.0046e-05
4.00466e-05
4.00471e-05
4.00476e-05
4.00481e-05
4.00486e-05
4.00491e-05
4.00496e-05
4.00501e-05
4.00505e-05
4.0051e-05
4.00514e-05
4.00519e-05
4.00523e-05
4.00527e-05
4.00531e-05
4.00535e-05
4.00538e-05
4.00541e-05
4.00545e-05
4.00548e-05
4.00551e-05
4.00553e-05
4.00556e-05
4.00559e-05
4.00561e-05
4.00564e-05
4.00566e-05
4.00569e-05
4.00571e-05
4.00573e-05
4.00575e-05
4.00426e-05
4.00425e-05
4.00422e-05
4.00423e-05
4.00425e-05
4.00429e-05
4.00434e-05
4.00439e-05
4.00445e-05
4.0045e-05
4.00455e-05
4.00461e-05
4.00466e-05
4.00472e-05
4.00477e-05
4.00482e-05
4.00487e-05
4.00492e-05
4.00497e-05
4.00502e-05
4.00506e-05
4.00511e-05
4.00515e-05
4.00519e-05
4.00523e-05
4.00527e-05
4.0053e-05
4.00534e-05
4.00537e-05
4.0054e-05
4.00543e-05
4.00546e-05
4.00549e-05
4.00552e-05
4.00554e-05
4.00557e-05
4.00559e-05
4.00561e-05
4.00564e-05
4.00566e-05
4.00567e-05
4.00412e-05
4.0041e-05
4.00409e-05
4.0041e-05
4.00413e-05
4.00417e-05
4.00422e-05
4.00427e-05
4.00433e-05
4.00438e-05
4.00444e-05
4.0045e-05
4.00455e-05
4.00461e-05
4.00466e-05
4.00471e-05
4.00477e-05
4.00482e-05
4.00487e-05
4.00491e-05
4.00496e-05
4.00501e-05
4.00505e-05
4.00509e-05
4.00513e-05
4.00517e-05
4.00521e-05
4.00524e-05
4.00528e-05
4.00531e-05
4.00534e-05
4.00537e-05
4.0054e-05
4.00542e-05
4.00545e-05
4.00547e-05
4.0055e-05
4.00552e-05
4.00554e-05
4.00557e-05
4.00558e-05
4.00397e-05
4.00395e-05
4.00395e-05
4.00396e-05
4.004e-05
4.00404e-05
4.00409e-05
4.00414e-05
4.0042e-05
4.00425e-05
4.00431e-05
4.00436e-05
4.00442e-05
4.00448e-05
4.00453e-05
4.00459e-05
4.00464e-05
4.00469e-05
4.00474e-05
4.00479e-05
4.00484e-05
4.00489e-05
4.00493e-05
4.00498e-05
4.00502e-05
4.00506e-05
4.00509e-05
4.00513e-05
4.00516e-05
4.00519e-05
4.00522e-05
4.00525e-05
4.00528e-05
4.00531e-05
4.00533e-05
4.00536e-05
4.00538e-05
4.0054e-05
4.00542e-05
4.00545e-05
4.00546e-05
4.00381e-05
4.0038e-05
4.0038e-05
4.00382e-05
4.00385e-05
4.00389e-05
4.00394e-05
4.00399e-05
4.00405e-05
4.0041e-05
4.00416e-05
4.00421e-05
4.00427e-05
4.00433e-05
4.00438e-05
4.00444e-05
4.00449e-05
4.00455e-05
4.0046e-05
4.00465e-05
4.0047e-05
4.00475e-05
4.00479e-05
4.00483e-05
4.00487e-05
4.00491e-05
4.00495e-05
4.00499e-05
4.00502e-05
4.00505e-05
4.00508e-05
4.00511e-05
4.00514e-05
4.00516e-05
4.00519e-05
4.00521e-05
4.00524e-05
4.00526e-05
4.00528e-05
4.0053e-05
4.00531e-05
4.00364e-05
4.00363e-05
4.00364e-05
4.00366e-05
4.00369e-05
4.00373e-05
4.00378e-05
4.00382e-05
4.00387e-05
4.00393e-05
4.00398e-05
4.00404e-05
4.0041e-05
4.00415e-05
4.00421e-05
4.00427e-05
4.00432e-05
4.00438e-05
4.00443e-05
4.00448e-05
4.00453e-05
4.00458e-05
4.00462e-05
4.00467e-05
4.00471e-05
4.00475e-05
4.00478e-05
4.00482e-05
4.00485e-05
4.00488e-05
4.00491e-05
4.00494e-05
4.00497e-05
4.00499e-05
4.00502e-05
4.00504e-05
4.00506e-05
4.00508e-05
4.0051e-05
4.00513e-05
4.00514e-05
4.00347e-05
4.00346e-05
4.00347e-05
4.00349e-05
4.00352e-05
4.00355e-05
4.00359e-05
4.00364e-05
4.00368e-05
4.00374e-05
4.00379e-05
4.00384e-05
4.0039e-05
4.00396e-05
4.00401e-05
4.00407e-05
4.00413e-05
4.00418e-05
4.00423e-05
4.00428e-05
4.00433e-05
4.00438e-05
4.00443e-05
4.00447e-05
4.00451e-05
4.00455e-05
4.00459e-05
4.00462e-05
4.00466e-05
4.00469e-05
4.00472e-05
4.00475e-05
4.00477e-05
4.0048e-05
4.00482e-05
4.00484e-05
4.00486e-05
4.00488e-05
4.0049e-05
4.00492e-05
4.00493e-05
4.00328e-05
4.00328e-05
4.00328e-05
4.0033e-05
4.00332e-05
4.00335e-05
4.00339e-05
4.00343e-05
4.00347e-05
4.00352e-05
4.00357e-05
4.00363e-05
4.00368e-05
4.00374e-05
4.00379e-05
4.00385e-05
4.0039e-05
4.00396e-05
4.00401e-05
4.00406e-05
4.00411e-05
4.00416e-05
4.00421e-05
4.00425e-05
4.00429e-05
4.00433e-05
4.00437e-05
4.0044e-05
4.00443e-05
4.00446e-05
4.00449e-05
4.00452e-05
4.00454e-05
4.00457e-05
4.00459e-05
4.00461e-05
4.00463e-05
4.00465e-05
4.00467e-05
4.00469e-05
4.0047e-05
4.00308e-05
4.00308e-05
4.00308e-05
4.0031e-05
4.00311e-05
4.00313e-05
4.00316e-05
4.0032e-05
4.00324e-05
4.00328e-05
4.00333e-05
4.00338e-05
4.00344e-05
4.00349e-05
4.00355e-05
4.0036e-05
4.00366e-05
4.00371e-05
4.00376e-05
4.00381e-05
4.00386e-05
4.00391e-05
4.00396e-05
4.004e-05
4.00404e-05
4.00408e-05
4.00411e-05
4.00415e-05
4.00418e-05
4.00421e-05
4.00423e-05
4.00426e-05
4.00428e-05
4.00431e-05
4.00433e-05
4.00435e-05
4.00437e-05
4.00438e-05
4.0044e-05
4.00442e-05
4.00443e-05
4.00287e-05
4.00287e-05
4.00287e-05
4.00287e-05
4.00288e-05
4.0029e-05
4.00292e-05
4.00295e-05
4.00298e-05
4.00302e-05
4.00307e-05
4.00312e-05
4.00317e-05
4.00322e-05
4.00327e-05
4.00333e-05
4.00338e-05
4.00343e-05
4.00348e-05
4.00353e-05
4.00358e-05
4.00363e-05
4.00367e-05
4.00371e-05
4.00375e-05
4.00379e-05
4.00382e-05
4.00386e-05
4.00389e-05
4.00391e-05
4.00394e-05
4.00396e-05
4.00399e-05
4.00401e-05
4.00403e-05
4.00405e-05
4.00406e-05
4.00408e-05
4.00409e-05
4.00411e-05
4.00412e-05
4.00265e-05
4.00265e-05
4.00264e-05
4.00263e-05
4.00263e-05
4.00264e-05
4.00265e-05
4.00268e-05
4.00271e-05
4.00274e-05
4.00278e-05
4.00283e-05
4.00287e-05
4.00292e-05
4.00297e-05
4.00302e-05
4.00307e-05
4.00312e-05
4.00317e-05
4.00322e-05
4.00327e-05
4.00331e-05
4.00335e-05
4.00339e-05
4.00343e-05
4.00346e-05
4.00349e-05
4.00353e-05
4.00355e-05
4.00358e-05
4.00361e-05
4.00363e-05
4.00365e-05
4.00367e-05
4.00369e-05
4.0037e-05
4.00372e-05
4.00373e-05
4.00375e-05
4.00376e-05
4.00377e-05
4.00241e-05
4.00241e-05
4.00239e-05
4.00237e-05
4.00237e-05
4.00236e-05
4.00237e-05
4.00239e-05
4.00241e-05
4.00244e-05
4.00247e-05
4.00251e-05
4.00255e-05
4.0026e-05
4.00264e-05
4.00269e-05
4.00273e-05
4.00278e-05
4.00282e-05
4.00287e-05
4.00291e-05
4.00295e-05
4.00299e-05
4.00303e-05
4.00306e-05
4.00309e-05
4.00312e-05
4.00315e-05
4.00318e-05
4.0032e-05
4.00322e-05
4.00324e-05
4.00326e-05
4.00328e-05
4.00329e-05
4.00331e-05
4.00332e-05
4.00333e-05
4.00334e-05
4.00335e-05
4.00335e-05
4.00216e-05
4.00215e-05
4.00212e-05
4.0021e-05
4.00208e-05
4.00207e-05
4.00207e-05
4.00208e-05
4.00209e-05
4.00211e-05
4.00214e-05
4.00217e-05
4.0022e-05
4.00224e-05
4.00228e-05
4.00231e-05
4.00235e-05
4.00239e-05
4.00243e-05
4.00247e-05
4.00251e-05
4.00254e-05
4.00258e-05
4.00261e-05
4.00264e-05
4.00267e-05
4.0027e-05
4.00272e-05
4.00275e-05
4.00277e-05
4.00279e-05
4.00281e-05
4.00282e-05
4.00284e-05
4.00285e-05
4.00287e-05
4.00288e-05
4.00289e-05
4.0029e-05
4.00291e-05
4.00291e-05
4.00189e-05
4.00187e-05
4.00184e-05
4.00181e-05
4.00178e-05
4.00177e-05
4.00176e-05
4.00176e-05
4.00176e-05
4.00177e-05
4.00178e-05
4.0018e-05
4.00182e-05
4.00185e-05
4.00188e-05
4.00191e-05
4.00194e-05
4.00197e-05
4.002e-05
4.00203e-05
4.00206e-05
4.00209e-05
4.00212e-05
4.00214e-05
4.00217e-05
4.00219e-05
4.00222e-05
4.00224e-05
4.00226e-05
4.00227e-05
4.00229e-05
4.0023e-05
4.00231e-05
4.00232e-05
4.00233e-05
4.00233e-05
4.00234e-05
4.00234e-05
4.00234e-05
4.00234e-05
4.00234e-05
4.00159e-05
4.00157e-05
4.00153e-05
4.0015e-05
4.00147e-05
4.00145e-05
4.00143e-05
4.00142e-05
4.00142e-05
4.00141e-05
4.00141e-05
4.00142e-05
4.00142e-05
4.00143e-05
4.00145e-05
4.00146e-05
4.00148e-05
4.00149e-05
4.00151e-05
4.00153e-05
4.00155e-05
4.00157e-05
4.00158e-05
4.0016e-05
4.00162e-05
4.00163e-05
4.00165e-05
4.00166e-05
4.00167e-05
4.00168e-05
4.0017e-05
4.00171e-05
4.00172e-05
4.00173e-05
4.00174e-05
4.00174e-05
4.00175e-05
4.00176e-05
4.00177e-05
4.00177e-05
4.00177e-05
4.00128e-05
4.00126e-05
4.00122e-05
4.00118e-05
4.00115e-05
4.00113e-05
4.00111e-05
4.00109e-05
4.00107e-05
4.00105e-05
4.00104e-05
4.00102e-05
4.00101e-05
4.001e-05
4.001e-05
4.00099e-05
4.00099e-05
4.00098e-05
4.00098e-05
4.00099e-05
4.00099e-05
4.00099e-05
4.001e-05
4.00101e-05
4.00102e-05
4.00103e-05
4.00104e-05
4.00105e-05
4.00105e-05
4.00106e-05
4.00107e-05
4.00107e-05
4.00107e-05
4.00107e-05
4.00107e-05
4.00106e-05
4.00106e-05
4.00105e-05
4.00104e-05
4.00104e-05
4.00103e-05
4.00095e-05
4.00092e-05
4.00089e-05
4.00086e-05
4.00083e-05
4.0008e-05
4.00078e-05
4.00075e-05
4.00073e-05
4.0007e-05
4.00067e-05
4.00064e-05
4.00061e-05
4.00058e-05
4.00055e-05
4.00053e-05
4.00051e-05
4.00049e-05
4.00047e-05
4.00045e-05
4.00044e-05
4.00043e-05
4.00043e-05
4.00043e-05
4.00043e-05
4.00043e-05
4.00044e-05
4.00044e-05
4.00045e-05
4.00045e-05
4.00046e-05
4.00046e-05
4.00046e-05
4.00046e-05
4.00046e-05
4.00046e-05
4.00046e-05
4.00046e-05
4.00046e-05
4.00046e-05
4.00047e-05
4.00059e-05
4.00057e-05
4.00054e-05
4.00052e-05
4.0005e-05
4.00049e-05
4.00046e-05
4.00044e-05
4.00041e-05
4.00038e-05
4.00034e-05
4.0003e-05
4.00026e-05
4.00022e-05
4.0002e-05
4.0002e-05
4.00021e-05
4.00023e-05
4.00025e-05
4.00027e-05
4.0003e-05
4.00031e-05
4.00033e-05
4.00035e-05
4.00037e-05
4.00039e-05
4.00041e-05
4.00042e-05
4.00044e-05
4.00045e-05
4.00046e-05
4.00047e-05
4.00048e-05
4.00048e-05
4.00049e-05
4.0005e-05
4.0005e-05
4.0005e-05
4.00051e-05
4.00051e-05
4.00051e-05
4.0002e-05
4.00019e-05
4.00019e-05
4.00018e-05
4.00017e-05
4.00017e-05
4.00016e-05
4.00015e-05
4.00014e-05
4.00012e-05
4.0001e-05
4.00006e-05
4.00005e-05
4.00006e-05
4.0001e-05
4.00016e-05
4.00024e-05
4.00032e-05
4.00042e-05
4.00053e-05
4.00065e-05
4.00077e-05
4.00091e-05
4.00105e-05
4.00119e-05
4.00134e-05
4.00148e-05
4.00162e-05
4.00176e-05
4.00188e-05
4.002e-05
4.0021e-05
4.0022e-05
4.0023e-05
4.00238e-05
4.00246e-05
4.00253e-05
4.0026e-05
4.00266e-05
4.00272e-05
4.00277e-05
0.00456632
0.00627004
0.00706816
0.00749172
0.00771942
0.0078007
0.00774787
0.00756851
0.00725841
0.00682846
0.0062828
0.00562839
0.00486884
0.00400376
0.00307029
0.00213045
0.00121984
0.000527012
9.17784e-05
0.000145403
3.59774e-05
1.20267e-05
2.54474e-05
3.84099e-05
4.52044e-05
4.40424e-05
4.08078e-05
3.92408e-05
3.93438e-05
3.98686e-05
4.01632e-05
4.01881e-05
4.01091e-05
4.0051e-05
4.00432e-05
4.00644e-05
4.00893e-05
4.01065e-05
4.01155e-05
4.01198e-05
4.01223e-05
4.01238e-05
4.0124e-05
4.01228e-05
4.01202e-05
4.01168e-05
4.01134e-05
4.01103e-05
4.01078e-05
4.0106e-05
4.01047e-05
4.01039e-05
4.01035e-05
4.01034e-05
4.01036e-05
4.0104e-05
4.01045e-05
4.01051e-05
4.01059e-05
4.01068e-05
4.01079e-05
4.01091e-05
4.01103e-05
4.01117e-05
4.01132e-05
4.01148e-05
4.01164e-05
4.0118e-05
4.01198e-05
4.01215e-05
4.01233e-05
4.01252e-05
4.01266e-05
4.01297e-05
0.00657199
0.00844438
0.00933977
0.0097767
0.0100119
0.0101145
0.0100956
0.0099625
0.009718
0.0093643
0.00890074
0.00832567
0.00763597
0.00682718
0.00589777
0.00486259
0.00372595
0.00257788
0.00149604
0.000664473
0.000142446
0.000184863
5.19193e-05
2.13008e-05
1.32442e-05
3.29174e-05
4.14561e-05
4.37299e-05
4.20415e-05
4.00472e-05
3.93935e-05
3.95745e-05
3.99427e-05
4.01587e-05
4.01847e-05
4.01264e-05
4.00779e-05
4.00695e-05
4.00878e-05
4.01103e-05
4.01247e-05
4.01295e-05
4.01285e-05
4.01254e-05
4.01223e-05
4.01189e-05
4.01157e-05
4.01127e-05
4.011e-05
4.01076e-05
4.01059e-05
4.01047e-05
4.01041e-05
4.01039e-05
4.0104e-05
4.01043e-05
4.01047e-05
4.01054e-05
4.01063e-05
4.01072e-05
4.01082e-05
4.01094e-05
4.01107e-05
4.0112e-05
4.01135e-05
4.0115e-05
4.01167e-05
4.01184e-05
4.01201e-05
4.01219e-05
4.01237e-05
4.01256e-05
4.01271e-05
4.01303e-05
0.00801924
0.00984195
0.0108147
0.0113989
0.0117636
0.0119631
0.0120274
0.0119838
0.0118452
0.0116119
0.011278
0.010838
0.010287
0.00962008
0.00882884
0.00790942
0.00684686
0.0056603
0.00436931
0.00304472
0.0018017
0.0008441
0.000215069
5.45859e-05
3.38851e-05
5.1235e-06
6.2727e-06
2.81198e-05
3.95393e-05
4.39683e-05
4.34505e-05
4.10714e-05
3.96368e-05
3.93282e-05
3.96544e-05
4.00426e-05
4.0222e-05
4.02181e-05
4.01511e-05
4.01035e-05
4.00947e-05
4.01085e-05
4.01242e-05
4.01317e-05
4.01308e-05
4.01252e-05
4.01192e-05
4.01145e-05
4.01115e-05
4.01093e-05
4.01077e-05
4.01064e-05
4.01054e-05
4.01048e-05
4.01046e-05
4.01048e-05
4.01052e-05
4.01059e-05
4.01067e-05
4.01076e-05
4.01087e-05
4.01098e-05
4.0111e-05
4.01124e-05
4.01138e-05
4.01154e-05
4.0117e-05
4.01187e-05
4.01205e-05
4.01223e-05
4.01241e-05
4.01261e-05
4.01276e-05
4.01309e-05
0.0100891
0.0113406
0.0117635
0.0123796
0.0128606
0.0131537
0.0133106
0.0133872
0.0133944
0.0133232
0.0131592
0.0128981
0.0125371
0.0120705
0.0114872
0.0107781
0.0099232
0.00892249
0.00776951
0.00646351
0.00503582
0.00357
0.00218763
0.0011196
0.000398452
6.33285e-06
0.000128733
1.78625e-05
1.14953e-05
1.60676e-05
3.43629e-05
4.33625e-05
4.4891e-05
4.26197e-05
4.04103e-05
3.93335e-05
3.93079e-05
3.97207e-05
4.00794e-05
4.02294e-05
4.02233e-05
4.01639e-05
4.0119e-05
4.01062e-05
4.01136e-05
4.01237e-05
4.01274e-05
4.01245e-05
4.01184e-05
4.01127e-05
4.01088e-05
4.01069e-05
4.01062e-05
4.01059e-05
4.01058e-05
4.01058e-05
4.0106e-05
4.01064e-05
4.01071e-05
4.01081e-05
4.01091e-05
4.01102e-05
4.01114e-05
4.01128e-05
4.01142e-05
4.01157e-05
4.01174e-05
4.01191e-05
4.01209e-05
4.01227e-05
4.01246e-05
4.01266e-05
4.01282e-05
4.01316e-05
0.0114981
0.0126689
0.0133151
0.0136691
0.0138621
0.0139365
0.014012
0.0141441
0.0142662
0.0143342
0.0143226
0.0142468
0.0141053
0.0138831
0.0135586
0.0131193
0.0125417
0.0118243
0.0109592
0.00992516
0.00871191
0.00732134
0.00579042
0.00420055
0.00270116
0.00144413
0.000605938
8.61713e-05
5.49974e-06
2.33136e-05
2.19165e-05
2.04916e-05
2.27825e-05
3.78354e-05
4.42419e-05
4.42212e-05
4.21318e-05
4.02539e-05
3.94276e-05
3.94554e-05
3.98043e-05
4.01057e-05
4.02351e-05
4.02278e-05
4.01688e-05
4.01205e-05
4.01023e-05
4.01054e-05
4.01143e-05
4.01192e-05
4.01183e-05
4.01141e-05
4.01097e-05
4.01069e-05
4.01059e-05
4.0106e-05
4.01066e-05
4.01073e-05
4.0108e-05
4.01088e-05
4.01097e-05
4.01107e-05
4.01119e-05
4.01132e-05
4.01146e-05
4.01162e-05
4.01178e-05
4.01195e-05
4.01213e-05
4.01232e-05
4.01251e-05
4.01272e-05
4.01287e-05
4.01323e-05
0.0121986
0.0130388
0.01374
0.0142705
0.0146348
0.0148373
0.0149252
0.0149566
0.0149533
0.0149121
0.0148335
0.0148361
0.0148629
0.0148576
0.0147728
0.0146084
0.0143385
0.0139656
0.0134607
0.0128004
0.0119654
0.010937
0.00970532
0.00827032
0.00667455
0.00499371
0.00337053
0.00194316
0.000914983
0.000231622
6.27582e-05
4.5616e-05
9.64203e-06
9.55615e-06
1.19503e-05
2.87149e-05
3.91263e-05
4.38878e-05
4.36615e-05
4.18423e-05
4.02551e-05
3.95588e-05
3.95805e-05
3.98903e-05
4.01573e-05
4.0265e-05
4.02446e-05
4.01757e-05
4.0119e-05
4.00946e-05
4.0095e-05
4.01046e-05
4.01123e-05
4.01145e-05
4.01128e-05
4.01099e-05
4.01078e-05
4.01071e-05
4.01077e-05
4.01089e-05
4.01102e-05
4.01115e-05
4.01127e-05
4.01139e-05
4.01152e-05
4.01166e-05
4.01182e-05
4.012e-05
4.01218e-05
4.01237e-05
4.01256e-05
4.01278e-05
4.01294e-05
4.0133e-05
0.011622
0.0119748
0.0124028
0.0129167
0.0134779
0.0140268
0.0145027
0.0148799
0.0151536
0.0153269
0.0153996
0.0154123
0.0153875
0.0153289
0.0151986
0.0151508
0.0151189
0.0150553
0.0149003
0.0146317
0.0142291
0.013666
0.0129143
0.0119472
0.0107511
0.00932485
0.00770466
0.00596409
0.00421936
0.00262233
0.00139493
0.000582556
5.26146e-05
0.000208828
2.36484e-05
6.13193e-06
1.54236e-05
2.31783e-05
3.19875e-05
4.02496e-05
4.37645e-05
4.32968e-05
4.15822e-05
4.00917e-05
3.9453e-05
3.95275e-05
3.98632e-05
4.01473e-05
4.02672e-05
4.02526e-05
4.01842e-05
4.01234e-05
4.00933e-05
4.00899e-05
4.00989e-05
4.01086e-05
4.01137e-05
4.01143e-05
4.01126e-05
4.01109e-05
4.01103e-05
4.0111e-05
4.01125e-05
4.01142e-05
4.01158e-05
4.01174e-05
4.0119e-05
4.01206e-05
4.01223e-05
4.01242e-05
4.01262e-05
4.01284e-05