/*--------------------------------*- C++ -*----------------------------------*\
| =========                 |                                                 |
| \\      /  F ield         | OpenFOAM: The Open Source CFD Toolbox           |
|  \\    /   O peration     | Version:  2312                                  |
|   \\  /    A nd           | Website:  www.openfoam.com                      |
|    \\/     M anipulation  |                                                 |
\*---------------------------------------------------------------------------*/
FoamFile
{
    version     2.0;
    format      ascii;
    arch        "LSB;label=32;scalar=64";
    class       volScalarField;
    location    "200";
    object      p;
}
// * * * * * * * * * * * * * * * * * * * * * * * * * * * * * * * * * * * * * //

dimensions      [0 2 -2 0 0 0 0];

internalField   nonuniform List<scalar> 
11040
(
-417.31
-781.098
-809.971
-719.371
-679.53
-682.918
-683.987
-668.107
-634.715
-590.555
-542.18
-495.333
-457.065
-427.926
-403.983
-382.015
-360.771
-339.798
-318.757
-297.215
-274.902
-252.253
-230.516
-210.812
-192.802
-175.673
-159.217
-143.375
-128.071
-113.224
-98.7944
-84.7822
-71.212
-58.1349
-45.6505
-33.9191
-23.1678
-13.3793
-5.13234
2.35039
6.18984
-219.498
-476.574
-593.174
-628.839
-654.785
-677.998
-685.333
-673.61
-642.102
-598.341
-550.209
-502.619
-462.459
-431.584
-406.527
-383.908
-362.248
-340.991
-319.76
-298.097
-275.729
-253.1
-231.358
-211.58
-193.49
-176.31
-159.816
-143.942
-128.612
-113.742
-99.2915
-85.2585
-71.6658
-58.5613
-46.0432
-34.2672
-23.4688
-13.6255
-5.35038
2.291
4.93624
-106.821
-323.856
-491.392
-573.605
-609.958
-636.286
-656.006
-658.349
-636.367
-597.576
-551.709
-505.042
-464.471
-432.826
-407.335
-384.558
-362.805
-341.456
-320.142
-298.426
-276.054
-253.479
-231.772
-211.948
-193.816
-176.625
-160.125
-144.246
-128.911
-114.04
-99.5882
-85.5529
-71.9561
-58.8432
-46.3104
-34.5109
-23.6854
-13.7978
-5.50682
2.40024
5.1383
-44.7878
-205.952
-366.919
-474.644
-532.325
-569.388
-597.108
-609.885
-601.842
-575.985
-539.58
-499.067
-461.202
-430.102
-404.686
-382.127
-360.716
-339.768
-318.886
-297.605
-275.63
-253.422
-231.951
-212.171
-194.031
-176.85
-160.362
-144.493
-129.173
-114.319
-99.885
-85.8657
-72.2814
-59.174
-46.638
-34.8237
-23.9716
-14.0349
-5.69858
2.48794
5.74394
-8.79255
-126.338
-258.012
-370.937
-449.206
-501.536
-537.755
-558.585
-561.175
-546.247
-519.004
-485.542
-451.99
-422.816
-398.374
-376.667
-356.071
-335.86
-315.643
-294.988
-273.607
-252.013
-231.079
-211.603
-193.663
-176.679
-160.359
-144.622
-129.403
-114.63
-100.26
-86.2912
-72.747
-59.6685
-47.1478
-35.3325
-24.4571
-14.4681
-6.04841
2.42382
6.13564
9.76068
-76.582
-178.298
-280.465
-365.191
-427.964
-473.175
-503.004
-516.007
-511.97
-494.516
-468.991
-440.766
-414.259
-391.011
-370.092
-350.194
-330.617
-311.009
-291.006
-270.314
-249.483
-229.299
-210.288
-192.626
-175.887
-159.789
-144.249
-129.216
-114.626
-100.437
-86.6394
-73.2516
-60.3052
-47.8833
-36.1256
-25.2555
-15.2177
-6.67431
2.0687
6.08976
18.8927
-45.9246
-122.075
-205.004
-283.763
-350.002
-402.064
-440.185
-463.279
-470.576
-463.952
-447.45
-425.702
-402.987
-381.724
-362.065
-343.201
-324.512
-305.675
-286.402
-266.424
-246.347
-226.908
-208.413
-191.094
-174.683
-158.913
-143.68
-128.93
-114.604
-100.656
-87.0772
-73.885
-61.1087
-48.8278
-37.1756
-26.3577
-16.3161
-7.66333
1.25792
5.46014
22.2885
-27.5779
-84.6908
-148.935
-215.516
-277.81
-331.462
-374.413
-405.102
-422.202
-426.054
-419.15
-405.085
-387.624
-369.542
-351.892
-334.525
-317.058
-299.251
-280.903
-261.809
-242.604
-223.976
-206.08
-189.166
-173.109
-157.691
-142.808
-128.412
-114.455
-100.895
-87.7124
-74.9134
-62.5007
-50.5272
-39.0956
-28.375
-18.2959
-9.41953
-0.277547
4.47637
22.4171
-16.8122
-60.2991
-109.195
-162.132
-215.54
-265.579
-309.184
-344.037
-368.293
-381.151
-383.587
-377.862
-366.847
-353.177
-338.462
-323.221
-307.441
-291.037
-273.918
-255.965
-237.828
-220.174
-203.061
-186.716
-171.122
-156.131
-141.648
-127.634
-114.059
-100.898
-88.1446
-75.8119
-63.9003
-52.4481
-41.5227
-31.2345
-21.4476
-12.5619
-3.42672
2.80168
20.68
-10.7918
-44.5787
-81.9464
-122.943
-166.147
-209.251
-249.642
-284.862
-312.786
-331.956
-342.163
-344.346
-340.257
-331.961
-321.155
-308.802
-295.283
-280.731
-265.192
-248.658
-231.799
-215.28
-199.12
-183.519
-168.531
-154.086
-140.113
-126.583
-113.476
-100.779
-88.4902
-76.6271
-65.1923
-54.2256
-43.7962
-33.9965
-24.7021
-16.1053
-7.53037
-0.097115
17.9895
-7.66403
-34.4297
-63.3658
-94.9406
-128.815
-163.942
-198.691
-231.145
-259.342
-281.597
-297.038
-305.615
-308.002
-305.433
-299.258
-290.537
-279.913
-267.737
-254.213
-239.452
-224.146
-208.973
-193.972
-179.321
-165.124
-151.377
-138.049
-125.124
-112.597
-100.467
-88.7373
-77.4274
-66.5378
-56.1001
-46.1761
-36.8337
-27.9939
-19.7292
-11.8207
-4.5007
14.9204
-6.26269
-27.8323
-50.6109
-75.1084
-101.412
-129.187
-157.618
-185.503
-211.392
-233.797
-251.626
-264.297
-271.712
-274.305
-272.853
-268.183
-260.963
-251.665
-240.607
-228.013
-214.576
-201
-187.38
-173.903
-160.702
-147.83
-135.3
-123.119
-111.298
-99.8472
-88.7825
-78.1235
-67.8723
-58.0529
-48.7204
-39.9242
-31.6156
-23.8317
-16.5601
-9.92148
11.842
-5.82538
-23.4508
-41.6634
-60.9025
-81.3785
-103.073
-125.66
-148.505
-170.701
-191.172
-208.954
-223.307
-233.744
-240.152
-242.758
-241.995
-238.343
-232.231
-224.006
-213.944
-202.702
-190.996
-179.004
-166.94
-154.963
-143.172
-131.622
-120.348
-109.378
-98.7393
-88.4551
-78.5514
-69.0328
-59.9219
-51.2691
-43.117
-35.4315
-28.2402
-21.5776
-15.5236
8.97182
-5.87259
-20.4313
-35.1896
-50.4988
-66.5781
-83.5222
-101.242
-119.45
-137.645
-155.146
-171.263
-185.355
-196.847
-205.366
-210.782
-213.168
-212.732
-209.737
-204.453
-197.131
-188.331
-178.736
-168.605
-158.183
-147.658
-137.161
-126.784
-116.591
-106.63
-96.9422
-87.5628
-78.5238
-69.8354
-61.5203
-53.6257
-46.1895
-39.1849
-32.6339
-26.5783
-21.0645
6.42904
-6.10546
-18.2273
-30.3154
-42.6415
-55.3985
-68.7073
-82.5778
-96.8982
-111.418
-125.747
-139.447
-152.069
-163.129
-172.209
-179.024
-183.432
-185.416
-185.048
-182.459
-177.814
-171.514
-164.157
-156.045
-147.445
-138.562
-129.55
-120.529
-111.586
-102.789
-94.194
-85.845
-77.7822
-70.0212
-62.5875
-55.5242
-48.8665
-42.5919
-36.7189
-31.2855
-26.3197
4.29571
-6.31985
-16.472
-26.4584
-36.4838
-46.7093
-57.2507
-68.1507
-79.3779
-90.8152
-102.251
-113.431
-124.073
-133.836
-142.377
-149.401
-154.685
-158.092
-159.561
-159.093
-156.745
-152.745
-147.557
-141.478
-134.767
-127.63
-120.23
-112.7
-105.143
-97.6397
-90.2566
-83.0473
-76.0566
-69.3077
-62.8273
-56.6565
-50.8263
-45.3196
-40.1506
-35.3509
-30.9365
2.62559
-6.37311
-14.9017
-23.1969
-31.4107
-39.6766
-48.0959
-56.7175
-65.542
-74.5179
-83.5328
-92.446
-101.091
-109.248
-116.675
-123.137
-128.421
-132.356
-134.821
-135.742
-135.095
-132.959
-129.651
-125.428
-120.51
-115.084
-109.307
-103.309
-97.1944
-91.0508
-84.9481
-78.9443
-73.0872
-67.4045
-61.9247
-56.6856
-51.7153
-47.0013
-42.5559
-38.4048
-34.5566
1.40507
-6.29255
-13.5408
-20.5273
-27.365
-34.1669
-41.0201
-47.9693
-55.0257
-62.1667
-69.3304
-76.4361
-83.3861
-90.0414
-96.241
-101.815
-106.596
-110.434
-113.201
-114.798
-115.164
-114.286
-112.364
-109.592
-106.146
-102.18
-97.8292
-93.2097
-88.4196
-83.5413
-78.6423
-73.7797
-69
-64.3332
-59.8072
-55.4566
-51.3063
-47.3487
-43.5949
-40.0664
-36.7675
0.53654
-6.14134
-12.3992
-18.3857
-24.1863
-29.8992
-35.5998
-41.3269
-47.0948
-52.8942
-58.6888
-64.4301
-70.0584
-75.4838
-80.5986
-85.2841
-89.4178
-92.8802
-95.5618
-97.3683
-98.229
-98.0908
-97.0732
-95.318
-92.9559
-90.1086
-86.8857
-83.3851
-79.6912
-75.8766
-72.0029
-68.1214
-64.2755
-60.4936
-56.8032
-53.2337
-49.8083
-46.5224
-43.3875
-40.4211
-37.6271
-0.0679976
-5.92623
-11.396
-16.5958
-21.591
-26.4689
-31.2956
-36.1046
-40.9102
-45.7095
-50.48
-55.1906
-59.8029
-64.2567
-68.4782
-72.3842
-75.8863
-78.895
-81.3238
-83.0933
-84.1387
-84.3942
-83.9323
-82.8538
-81.255
-79.2275
-76.8584
-74.226
-71.4012
-68.4443
-65.4081
-62.3372
-59.2699
-56.2319
-53.2482
-50.3441
-47.5398
-44.8335
-42.2366
-39.7633
-37.4179
-0.483752
-5.66761
-10.495
-15.0588
-19.4102
-23.628
-27.7705
-31.8667
-35.93
-39.9607
-43.9444
-47.86
-51.6819
-55.3681
-58.8668
-62.1192
-65.0614
-67.6273
-69.7515
-71.3717
-72.4337
-72.8737
-72.7368
-72.0964
-71.0212
-69.5813
-67.8434
-65.8703
-63.7175
-61.4356
-59.0676
-56.6514
-54.2189
-51.793
-49.3951
-47.0469
-44.7655
-42.5511
-40.4141
-38.3666
-36.4128
-0.761127
-5.38028
-9.6729
-13.7116
-17.5365
-21.2197
-24.8131
-28.3419
-31.8184
-35.2447
-38.6112
-41.9034
-45.1031
-48.1804
-51.098
-53.8135
-56.2806
-58.4506
-60.2748
-61.7057
-62.7011
-63.2049
-63.2483
-62.8843
-62.1633
-61.1376
-59.8595
-58.3776
-56.7366
-54.9761
-53.1316
-51.2341
-49.3098
-47.3783
-45.4576
-43.5659
-41.7173
-39.913
-38.1629
-36.4764
-34.8586
-0.937309
-5.07681
-8.91779
-12.5155
-15.9024
-19.1445
-22.2884
-25.3562
-28.3591
-31.3002
-34.1731
-36.9675
-39.6703
-42.2595
-44.7079
-46.9844
-49.055
-50.8841
-52.4356
-53.674
-54.5673
-55.0693
-55.2035
-55.0101
-54.5255
-53.79
-52.8437
-51.7253
-50.4693
-49.1077
-47.6686
-46.177
-44.6546
-43.1173
-41.5804
-40.0585
-38.5633
-37.0967
-35.6675
-34.283
-32.9487
-1.03864
-4.76648
-8.22106
-11.4438
-14.4608
-17.3336
-20.1035
-22.7905
-25.4047
-27.9498
-30.4216
-32.8128
-35.1137
-37.308
-39.3754
-41.2929
-43.0355
-44.577
-45.8909
-46.9508
-47.7332
-48.2009
-48.3738
-48.2826
-47.9552
-47.4222
-46.7154
-45.8646
-44.8975
-43.839
-42.7117
-41.5355
-40.328
-39.1022
-37.8709
-36.6457
-35.4363
-34.2445
-33.0784
-31.9433
-30.8452
-1.08486
-4.45596
-7.57687
-10.4771
-13.1786
-15.738
-18.193
-20.561
-22.8517
-25.0689
-27.2104
-29.2705
-31.2423
-33.1136
-34.8692
-36.4919
-37.9632
-39.2639
-40.3746
-41.2759
-41.9509
-42.3703
-42.5519
-42.5204
-42.2967
-41.9052
-41.3706
-40.7169
-39.9656
-39.1369
-38.2483
-37.3159
-36.3541
-35.3733
-34.3839
-33.3953
-32.4154
-31.4457
-30.4935
-29.5627
-28.6593
-1.09024
-4.15018
-6.98041
-9.60107
-12.0305
-14.3216
-16.5082
-18.6062
-20.6244
-22.567
-24.4329
-26.2182
-27.9178
-29.5224
-31.0208
-32.4001
-33.6468
-34.7466
-35.6855
-36.4495
-37.0265
-37.394
-37.5686
-37.5701
-37.4152
-37.1228
-36.7133
-36.2052
-35.6162
-34.9619
-34.2569
-33.5133
-32.7428
-31.9542
-31.1559
-30.3554
-29.5588
-28.7679
-27.9889
-27.2244
-26.4805
-1.06582
-3.85246
-6.42786
-8.80423
-10.9975
-13.0567
-15.0127
-16.8797
-18.6661
-20.3764
-22.0102
-23.5649
-25.037
-26.4195
-27.7041
-28.8813
-29.9411
-30.8731
-31.6674
-32.3139
-32.8043
-33.1214
-33.2809
-33.2992
-33.1894
-32.9672
-32.6485
-32.249
-31.7822
-31.261
-30.6967
-30.0995
-29.4783
-28.8405
-28.193
-27.5417
-26.8916
-26.2441
-25.6047
-24.9751
-24.3613
-1.01958
-3.56521
-5.91578
-8.07754
-10.0643
-11.9217
-13.6779
-15.3458
-16.9334
-18.4452
-19.8817
-21.2414
-22.5217
-23.7177
-24.8233
-25.8315
-26.7351
-27.5269
-28.1995
-28.7462
-29.1614
-29.4321
-29.5734
-29.5988
-29.5191
-29.3468
-29.0955
-28.7772
-28.4035
-27.9842
-27.529
-27.0456
-26.5414
-26.0224
-25.4942
-24.9616
-24.4286
-23.8964
-23.3697
-22.8496
-22.3416
-0.957963
-3.28989
-5.4413
-7.41345
-9.21874
-10.8994
-12.4814
-13.9764
-15.3921
-16.7332
-18.0006
-19.1938
-20.3112
-21.3494
-22.304
-23.1701
-23.9426
-24.6164
-25.1867
-25.6489
-25.9994
-26.2287
-26.3509
-26.3779
-26.3179
-26.1818
-25.9802
-25.7237
-25.4211
-25.0807
-24.71
-24.3159
-23.9038
-23.4785
-23.045
-22.607
-22.1678
-21.7283
-21.2926
-20.8611
-20.4394
-0.885556
-3.02755
-5.00169
-6.8057
-8.45061
-9.97581
-11.4048
-12.7488
-14.0149
-15.208
-16.3296
-17.3797
-18.3577
-19.2615
-20.0879
-20.8337
-21.4954
-22.0699
-22.5538
-22.9444
-23.2396
-23.4326
-23.5368
-23.5618
-23.5151
-23.4051
-23.2414
-23.0319
-22.7844
-22.5056
-22.2015
-21.8776
-21.5385
-21.1879
-20.8301
-20.468
-20.1043
-19.7397
-19.3777
-19.0185
-18.6672
-0.806181
-2.77867
-4.59467
-6.24891
-7.75159
-9.13921
-10.4334
-11.6446
-12.7798
-13.8438
-14.8387
-15.7651
-16.623
-17.4114
-18.1283
-18.7716
-19.3395
-19.8297
-20.2405
-20.5704
-20.8185
-20.9799
-21.0672
-21.0889
-21.0507
-20.9603
-20.825
-20.6522
-20.4477
-20.2172
-19.9655
-19.6974
-19.4163
-19.1255
-18.8284
-18.5273
-18.2245
-17.9206
-17.6185
-17.3181
-17.0242
-0.72253
-2.5436
-4.21799
-5.73854
-7.11458
-8.38002
-9.55482
-10.6487
-11.6686
-12.6194
-13.5035
-14.3222
-15.0761
-15.7648
-16.3876
-16.9432
-17.4308
-17.8494
-18.1981
-18.4764
-18.6842
-18.8184
-18.8906
-18.908
-18.8758
-18.7998
-18.6869
-18.5425
-18.3721
-18.18
-17.9705
-17.747
-17.5129
-17.2705
-17.0224
-16.7709
-16.5178
-16.2635
-16.0105
-15.7584
-15.512
-0.636932
-2.32236
-3.86982
-5.27063
-6.5336
-7.69009
-8.75863
-9.74843
-10.6663
-11.5172
-12.304
-13.0283
-13.6915
-14.2937
-14.835
-15.3151
-15.7338
-16.0911
-16.3868
-16.6211
-16.7946
-16.9053
-16.964
-16.977
-16.9483
-16.8834
-16.7875
-16.6659
-16.5223
-16.3609
-16.185
-15.9975
-15.801
-15.5976
-15.3894
-15.1781
-14.9654
-14.7515
-14.5386
-14.3261
-14.1185
-0.550993
-2.11494
-3.54835
-4.84183
-6.00351
-7.06257
-8.03615
-8.93314
-9.76025
-10.5226
-11.2233
-11.8646
-12.4481
-12.9747
-13.4452
-13.8598
-14.2192
-14.5237
-14.774
-14.9707
-15.1148
-15.2053
-15.2522
-15.2608
-15.2348
-15.1784
-15.0964
-14.9929
-14.8715
-14.7351
-14.5868
-14.4288
-14.2635
-14.0923
-13.917
-13.7392
-13.5601
-13.38
-13.2006
-13.0214
-12.8463
-0.46616
-1.92115
-3.25213
-4.44913
-5.51996
-6.49158
-7.38003
-8.19389
-8.93987
-9.6232
-10.2474
-10.8151
-11.3284
-11.7886
-12.197
-12.5546
-12.8624
-13.1213
-13.3324
-13.4966
-13.6155
-13.6885
-13.7248
-13.7292
-13.7044
-13.6544
-13.5829
-13.4938
-13.3896
-13.2732
-13.1468
-13.0126
-12.8721
-12.7269
-12.5782
-12.4274
-12.2755
-12.1226
-11.9704
-11.8181
-11.6695
-0.383426
-1.7409
-2.97975
-4.09008
-5.0792
-5.97215
-6.78397
-7.52306
-8.19617
-8.80869
-9.36452
-9.8666
-10.3174
-10.719
-11.0728
-11.3804
-11.6431
-11.8623
-12.0395
-12.1759
-12.273
-12.331
-12.3585
-12.3592
-12.3358
-12.2913
-12.2293
-12.1524
-12.0634
-11.9643
-11.857
-11.7433
-11.6245
-11.5018
-11.3763
-11.249
-11.1208
-10.9918
-10.8634
-10.7348
-10.6096
-0.303747
-1.57401
-2.73021
-3.76255
-4.67808
-5.50002
-6.24258
-6.91412
-7.52144
-8.07015
-8.56446
-9.00771
-9.40278
-9.752
-10.0574
-10.3208
-10.5439
-10.7284
-10.8758
-10.9876
-11.0655
-11.11
-11.1288
-11.1253
-11.1014
-11.0601
-11.004
-10.936
-10.8577
-10.7713
-10.6782
-10.5797
-10.4771
-10.3715
-10.2635
-10.1541
-10.0439
-9.93323
-9.82302
-9.71262
-9.60514
-0.22777
-1.4204
-2.50255
-3.4649
-4.31411
-5.07176
-5.75146
-6.36155
-6.90908
-7.39989
-7.83854
-8.2287
-8.57359
-8.87593
-9.13806
-9.36217
-9.55026
-9.70419
-9.82577
-9.91664
-9.97861
-10.0124
-10.0251
-10.0195
-9.99736
-9.96082
-9.91247
-9.85422
-9.78783
-9.71467
-9.63614
-9.55329
-9.4672
-9.37857
-9.28819
-9.19662
-9.10452
-9.012
-8.91996
-8.82773
-8.73813
-0.156139
-1.27988
-2.29595
-3.19552
-3.98505
-4.68456
-5.30707
-5.86104
-6.35378
-6.79153
-7.17928
-7.52109
-7.8205
-8.0805
-8.30371
-8.49252
-8.6491
-8.77544
-8.87334
-8.94442
-8.99038
-9.01208
-9.01586
-9.00429
-8.97872
-8.94137
-8.89423
-8.83917
-8.77752
-8.71064
-8.63948
-8.56509
-8.48819
-8.40947
-8.3294
-8.24853
-8.16737
-8.08596
-8.00502
-7.92395
-7.84521
-0.0893776
-1.15249
-2.10962
-2.95282
-3.6884
-4.33514
-4.90565
-5.40848
-5.85112
-6.2401
-6.58088
-6.87803
-7.13556
-7.35681
-7.54471
-7.70184
-7.83057
-7.93313
-8.01158
-8.06776
-8.10353
-8.11992
-8.12253
-8.11315
-8.09294
-8.0633
-8.02591
-7.98203
-7.93287
-7.87923
-7.82216
-7.76232
-7.70043
-7.63693
-7.57239
-7.50716
-7.44169
-7.37605
-7.31087
-7.24554
-7.18233
-0.0281637
-1.03872
-1.94395
-2.73655
-3.42287
-4.02077
-4.54296
-4.99849
-5.39515
-5.73968
-6.03764
-6.29386
-6.51264
-6.69779
-6.85258
-6.97977
-7.08163
-7.16007
-7.21673
-7.25309
-7.27065
-7.27055
-7.25809
-7.23533
-7.20347
-7.16421
-7.11909
-7.06951
-7.01633
-6.96054
-6.90268
-6.84339
-6.78304
-6.72207
-6.66068
-6.59917
-6.53781
-6.4766
-6.41594
-6.35539
-6.29667
0.0270372
-0.939289
-1.80014
-2.54885
-3.19125
-3.74409
-4.22024
-4.62972
-4.98147
-5.28315
-5.54094
-5.75979
-5.94384
-6.09678
-6.22204
-6.32299
-6.40282
-6.46439
-6.51015
-6.54199
-6.56156
-6.56966
-6.56995
-6.56312
-6.54946
-6.52959
-6.50448
-6.47477
-6.4413
-6.40457
-6.36533
-6.324
-6.28118
-6.23722
-6.19258
-6.14748
-6.10226
-6.05701
-6.0122
-5.96733
-5.92411
0.0759087
-0.853579
-1.67671
-2.38813
-2.99353
-3.50813
-3.94407
-4.31127
-4.61922
-4.87676
-5.09172
-5.2707
-5.41898
-5.54036
-5.63742
-5.71184
-5.76491
-5.79787
-5.81221
-5.80956
-5.79176
-5.76081
-5.72193
-5.67737
-5.62856
-5.5771
-5.52419
-5.47085
-5.41752
-5.36467
-5.31238
-5.2609
-5.21018
-5.16028
-5.11113
-5.06279
-5.01516
-4.96819
-4.92199
-4.87631
-4.83199
0.117961
-0.780253
-1.56809
-2.24296
-2.8124
-3.29221
-3.69482
-4.02977
-4.30536
-4.52901
-4.7076
-4.84785
-4.95658
-5.04054
-5.10605
-5.15856
-5.20225
-5.23985
-5.27285
-5.30171
-5.3265
-5.34646
-5.36214
-5.37257
-5.37709
-5.3756
-5.36856
-5.35637
-5.33974
-5.31921
-5.29561
-5.26948
-5.24152
-5.21216
-5.18197
-5.15122
-5.12033
-5.08944
-5.05891
-5.02846
-4.99929
0.151868
-0.722566
-1.47897
-2.11559
-2.64156
-3.07487
-3.43172
-3.72541
-3.96696
-4.16482
-4.32483
-4.45065
-4.5444
-4.60734
-4.64066
-4.64609
-4.62625
-4.58457
-4.52504
-4.45167
-4.36814
-4.27825
-4.18823
-4.10089
-4.01773
-3.9399
-3.86787
-3.80181
-3.74132
-3.686
-3.63515
-3.58828
-3.54474
-3.50402
-3.46561
-3.42923
-3.39439
-3.36084
-3.3284
-3.29691
-3.26631
0.176287
-0.691273
-1.43805
-2.05939
-2.55964
-2.95318
-3.25585
-3.48362
-3.65226
-3.77669
-3.87029
-3.94453
-4.00873
-4.06986
-4.13246
-4.19867
-4.26861
-4.34086
-4.41322
-4.48331
-4.54916
-4.60862
-4.6596
-4.70036
-4.73048
-4.75018
-4.76034
-4.76187
-4.75597
-4.74393
-4.72726
-4.70712
-4.68448
-4.66014
-4.63469
-4.60867
-4.58247
-4.55636
-4.53056
-4.50524
-4.48047
0.19019
-0.688051
-1.44995
-2.09404
-2.62216
-3.04245
-3.36407
-3.59634
-3.74895
-3.83163
-3.85384
-3.82457
-3.75241
-3.64549
-3.51167
-3.35841
-3.19284
-3.02138
-2.84961
-2.68185
-2.52124
-2.37037
-2.23366
-2.11255
-2.00688
-1.916
-1.83893
-1.77452
-1.72036
-1.67348
-1.63234
-1.59624
-1.56459
-1.53669
-1.51213
-1.49014
-1.47044
-1.45271
-1.43679
-1.42195
-1.40911
0.192125
-0.680525
-1.41043
-2.01285
-2.50657
-2.91206
-3.24661
-3.52371
-3.75392
-3.94562
-4.1055
-4.23893
-4.35027
-4.44301
-4.51988
-4.58295
-4.63371
-4.67334
-4.70284
-4.72329
-4.73589
-4.74181
-4.73989
-4.73031
-4.71451
-4.69405
-4.66997
-4.6432
-4.61597
-4.59051
-4.56744
-4.5467
-4.52823
-4.51218
-4.49849
-4.4873
-4.4785
-4.47208
-4.46789
-4.46605
-4.46577
28.9309
33.4088
31.919
31.1731
29.6724
27.3904
25.0669
22.9604
21.0157
19.2274
17.606
16.1529
14.849
13.6779
12.6238
11.675
10.8199
10.0472
9.34588
8.70702
8.12512
7.59557
7.11204
6.67019
6.26516
5.89378
5.55216
5.23776
4.94762
4.67998
4.43246
4.20349
3.99109
3.79402
3.61057
3.43978
3.28026
3.13122
2.99135
2.86018
2.73664
2.62023
2.5103
2.40634
2.30765
2.21454
2.12577
2.04089
1.95965
1.88152
1.80636
1.73344
1.66281
1.59354
1.5255
1.45816
1.3914
1.32479
1.25838
1.19168
1.12437
1.05598
0.986007
0.914336
0.840392
0.764405
0.685785
0.603867
0.516626
0.427068
0.326283
0.236989
0.100731
0.0796984
28.3381
32.7249
31.4527
30.9717
29.5408
27.2482
24.916
22.8043
20.8567
19.0655
17.4438
15.9924
14.6919
13.525
12.4756
11.5319
10.6823
9.91652
9.22335
8.5925
8.01787
7.4944
7.01612
6.57926
6.17927
5.81276
5.47573
5.16551
4.87942
4.61567
4.37179
4.1462
3.93703
3.74296
3.56236
3.39425
3.23727
3.09059
2.95297
2.82392
2.70239
2.58786
2.47969
2.3774
2.28031
2.1886
2.10122
2.01778
1.93785
1.86096
1.78698
1.71518
1.6456
1.57733
1.51024
1.4438
1.37789
1.31209
1.24648
1.18055
1.11396
1.04625
0.976951
0.905934
0.832661
0.757357
0.67942
0.598183
0.511653
0.42283
0.322882
0.234334
0.0993213
0.0786929
28.0874
31.9952
30.9885
30.7076
29.3576
27.0737
24.7391
22.6244
20.6742
18.8799
17.2575
15.8073
14.5102
13.3478
12.3039
11.3665
10.5233
9.76426
9.07845
8.45535
7.88947
7.37497
6.90496
6.47489
6.08073
5.71962
5.38796
5.08288
4.80207
4.54292
4.30324
4.0816
3.8762
3.68568
3.50841
3.34343
3.18938
3.04544
2.91042
2.7838
2.66456
2.55218
2.44604
2.34565
2.25037
2.16009
2.07436
1.99253
1.91405
1.83854
1.76586
1.69532
1.62689
1.55974
1.49369
1.42825
1.36329
1.2984
1.23373
1.16862
1.10282
1.03585
0.967281
0.896977
0.824442
0.749873
0.672661
0.592146
0.506377
0.41833
0.319276
0.231521
0.0978413
0.0776167
27.707
31.3552
30.5727
30.4082
29.1302
26.8692
24.5412
22.4285
20.4772
18.6798
17.056
15.6063
14.3112
13.1519
12.1124
11.1806
10.3436
9.59195
8.91367
8.29771
7.73908
7.23274
6.77206
6.35171
5.96674
5.61326
5.28791
4.98874
4.71361
4.4599
4.22543
4.00858
3.80761
3.62118
3.44778
3.28644
3.13584
2.9951
2.86309
2.73926
2.62266
2.51275
2.40892
2.31071
2.21749
2.12898
2.04509
1.96499
1.88812
1.81415
1.74293
1.67378
1.60665
1.54073
1.47583
1.41149
1.34757
1.28377
1.22006
1.15584
1.09089
1.02472
0.956953
0.887432
0.815704
0.741922
0.665479
0.585735
0.500779
0.413556
0.315461
0.22855
0.0962929
0.0764758
27.2442
30.5609
29.9415
29.9793
28.8328
26.616
24.3033
22.2024
20.258
18.4629
16.8411
15.3925
14.0988
12.9417
11.9054
10.9778
10.1461
9.4009
8.72992
8.1213
7.5701
7.07119
6.61795
6.20581
5.83044
5.48731
5.17189
4.88123
4.61296
4.36514
4.13634
3.92509
3.72958
3.54821
3.37942
3.2223
3.07564
2.93861
2.81011
2.68957
2.57603
2.46897
2.36779
2.27206
2.1812
2.0949
2.01311
1.93497
1.85992
1.7877
1.7181
1.65052
1.58482
1.52027
1.45665
1.39352
1.33073
1.26806
1.20536
1.14211
1.07809
1.01281
0.945906
0.877244
0.806395
0.733461
0.657836
0.578915
0.494834
0.408489
0.311423
0.225411
0.0946687
0.0752711
26.6127
29.4098
28.9075
29.2388
28.3229
26.2121
23.9497
21.8932
19.9833
18.2097
16.6017
15.1606
13.871
12.7172
11.6849
10.7613
9.93384
9.19408
8.52967
7.92761
7.38364
6.89242
6.44674
6.04189
5.67383
5.33872
5.0327
4.75262
4.49486
4.25642
4.03526
3.83027
3.64048
3.46474
3.30149
3.14964
3.00781
2.87512
2.75064
2.63383
2.52383
2.42008
2.32201
2.22917
2.14102
2.05725
1.97782
1.90192
1.82897
1.75872
1.69098
1.62515
1.56107
1.49804
1.43585
1.37407
1.31256
1.25108
1.1895
1.12732
1.06433
1.00003
0.934078
0.866358
0.796466
0.72444
0.649689
0.571653
0.488516
0.403114
0.307152
0.222099
0.0929602
0.0740087
25.3269
27.5712
27.2052
27.9403
27.3973
25.4982
23.3527
21.389
19.5559
17.8383
16.2729
14.8665
13.6033
12.4689
11.4499
10.5342
9.71087
8.9754
8.31692
7.71964
7.18151
6.69721
6.25916
5.86221
5.50198
5.1742
4.8753
4.60276
4.35388
4.12576
3.91546
3.72063
3.53934
3.3704
3.21291
3.06656
2.93025
2.80294
2.68349
2.57122
2.46532
2.36532
2.27076
2.18123
2.09625
2.01542
1.93872
1.86538
1.7948
1.72679
1.66115
1.5973
1.53506
1.47375
1.41317
1.3529
1.29281
1.23267
1.17235
1.11137
1.04951
0.98628
0.921389
0.854703
0.785846
0.714803
0.640993
0.563912
0.481796
0.39741
0.302635
0.218601
0.0911508
0.0726979
22.4756
24.5664
24.4132
25.5486
25.5737
24.1478
22.3171
20.5687
18.8912
17.2768
15.7793
14.4249
13.2068
12.1125
11.1301
10.2466
9.44909
8.73531
8.09271
7.50458
6.97214
6.49251
6.05961
5.66863
5.31538
4.9952
4.70399
4.43884
4.1971
3.97613
3.77388
3.58872
3.41831
3.26001
3.11191
2.97311
2.84286
2.72089
2.60673
2.49974
2.39898
2.30372
2.21341
2.12771
2.04626
1.96872
1.89513
1.82474
1.75693
1.6915
1.62827
1.56667
1.5065
1.44713
1.38835
1.32979
1.27131
1.21268
1.15377
1.09411
1.0335
0.971476
0.907752
0.842203
0.774472
0.704492
0.631699
0.555654
0.474646
0.39136
0.29786
0.214913
0.089225
0.0713528
16.8836
19.7557
20.2069
21.5886
22.1998
21.4795
20.2165
18.9089
17.5991
16.2802
15.0057
13.8129
12.7057
11.6811
10.7397
9.88204
9.1062
8.41449
7.79499
7.23125
6.72145
6.26136
5.84423
5.4647
5.1197
4.80636
4.52184
4.26363
4.02905
3.81504
3.61933
3.44065
3.27741
3.12763
2.98967
2.86172
2.74177
2.6284
2.52101
2.41947
2.32364
2.2333
2.14797
2.06709
1.99013
1.91663
1.84663
1.77954
1.7148
1.65229
1.59182
1.53283
1.47504
1.41789
1.36117
1.30453
1.24784
1.1909
1.13356
1.0754
1.01618
0.955492
0.893061
0.82876
0.762256
0.693435
0.621754
0.546836
0.467034
0.384941
0.292807
0.211016
0.0871568
0.0699913
9.67951
13.6247
15.0966
16.67
17.7334
17.7114
17.0378
16.191
15.288
14.3348
13.3784
12.4645
11.6059
10.8003
10.0454
9.33831
8.67589
8.0594
7.48332
6.94366
6.44637
5.99475
5.58724
5.2201
4.88908
4.59022
4.31946
4.07321
3.84877
3.64378
3.45627
3.28491
3.12807
2.98408
2.85183
2.73062
2.61924
2.51599
2.41914
2.3273
2.23943
2.15527
2.0749
1.99855
1.92614
1.85725
1.79175
1.72887
1.66791
1.60879
1.55142
1.4953
1.44019
1.38556
1.3312
1.27677
1.22213
1.16711
1.11154
1.05503
0.997385
0.938185
0.877195
0.814275
0.749112
0.681563
0.611102
0.537415
0.458925
0.378128
0.28746
0.206904
0.0849196
0.0686399
2.65126
7.05554
9.49848
11.4188
12.8788
13.5113
13.4727
13.1259
12.6359
12.0341
11.3636
10.6797
10.015
9.38351
8.79263
8.24575
7.74189
7.27752
6.84452
6.43396
6.04341
5.67169
5.3173
4.98068
4.66411
4.37075
4.10281
3.86046
3.64253
3.44689
3.27062
3.11095
2.96537
2.83158
2.70792
2.59354
2.48769
2.3897
2.29907
2.21519
2.13677
2.06243
1.99111
1.9222
1.8556
1.79136
1.73003
1.67132
1.61459
1.55965
1.5062
1.45363
1.40166
1.34988
1.29811
1.24614
1.19382
1.14098
1.08743
1.03282
0.976934
0.919403
0.86001
0.798615
0.734926
0.668782
0.599671
0.527339
0.450278
0.370888
0.28179
0.202556
0.0824744
0.0673339
-3.87623
0.438899
3.44675
5.79552
7.64309
8.8349
9.41754
9.61721
9.5913
9.39741
9.07957
8.69087
8.27044
7.83896
7.40924
6.99168
6.59408
6.22261
5.87962
5.56406
5.27473
5.009
4.76153
4.52668
4.30032
4.08005
3.8651
3.65606
3.45477
3.26441
3.08798
2.92745
2.78366
2.65571
2.54138
2.4382
2.34371
2.25584
2.17332
2.09569
2.02266
1.95408
1.88988
1.82938
1.77163
1.71567
1.66131
1.60812
1.55577
1.50473
1.45511
1.40641
1.35822
1.30999
1.26145
1.21239
1.16269
1.11226
1.06094
1.00844
0.954557
0.89893
0.841349
0.781666
0.71961
0.655014
0.587393
0.516545
0.441042
0.363183
0.275773
0.197963
0.0797815
0.0661238
-10.0798
-6.02979
-2.82101
-0.131959
2.07138
3.72275
4.85029
5.58149
6.03233
6.26848
6.33663
6.28522
6.15553
5.97509
5.76254
5.53222
5.29507
5.05846
4.82688
4.60235
4.38741
4.18519
3.99788
3.82632
3.66988
3.52643
3.39255
3.26408
3.13733
3.0102
2.882
2.75334
2.62605
2.50289
2.38686
2.28049
2.1854
2.10147
2.02694
1.95958
1.89714
1.83791
1.78123
1.72691
1.67496
1.62547
1.57846
1.53308
1.48816
1.44353
1.3991
1.35458
1.30999
1.26521
1.2201
1.17444
1.128
1.08056
1.0319
0.98181
0.930113
0.876551
0.82096
0.76319
0.702974
0.64013
0.574185
0.504981
0.431174
0.354975
0.269371
0.1931
0.0767835
0.065075
-16.1582
-12.3615
-9.11489
-6.22456
-3.74191
-1.72239
-0.142649
1.06869
1.98312
2.65449
3.12614
3.44011
3.63478
3.74033
3.77933
3.76966
3.72536
3.6573
3.57304
3.47788
3.37612
3.27145
3.16656
3.06322
2.96285
2.86705
2.77732
2.69484
2.61972
2.55085
2.48594
2.42192
2.35587
2.28597
2.21164
2.13343
2.05303
1.97295
1.89593
1.82458
1.76071
1.70448
1.65474
1.6096
1.56719
1.52619
1.4864
1.44744
1.40882
1.37081
1.3332
1.29522
1.25633
1.21622
1.1749
1.13251
1.08918
1.04486
0.999293
0.952168
0.903221
0.852161
0.798852
0.743183
0.684952
0.624006
0.559904
0.49252
0.420584
0.34621
0.262558
0.187968
0.0734238
0.0642792
-21.9119
-18.348
-15.1488
-12.1938
-9.55023
-7.27341
-5.35273
-3.7502
-2.42858
-1.35384
-0.492836
0.187752
0.719831
1.13127
1.44522
1.68104
1.85512
1.98071
2.06841
2.12645
2.16128
2.17817
2.18129
2.1737
2.1578
2.13564
2.10894
2.0792
2.04786
2.01625
1.98569
1.95722
1.93127
1.90722
1.88343
1.85761
1.82748
1.79157
1.74939
1.70156
1.64976
1.59626
1.54374
1.49476
1.45098
1.41257
1.37892
1.34813
1.31805
1.28795
1.25736
1.22589
1.19326
1.15925
1.1237
1.08637
1.04724
1.00635
0.963702
0.919302
0.873067
0.82476
0.774193
0.721147
0.665349
0.606626
0.54458
0.479159
0.40922
0.33681
0.255259
0.182528
0.069615
0.0638641
-27.0186
-23.7281
-20.6698
-17.7762
-15.1031
-12.6984
-10.5647
-8.68705
-7.05093
-5.64056
-4.43638
-3.41627
-2.55744
-1.83816
-1.23837
-0.740038
-0.327079
0.0144864
0.296556
0.529012
0.720183
0.877205
1.00598
1.11136
1.19726
1.2668
1.3225
1.36651
1.40057
1.42623
1.44488
1.45788
1.46656
1.47219
1.47593
1.47868
1.48082
1.48192
1.48072
1.47549
1.4646
1.44705
1.4228
1.39273
1.35842
1.32193
1.28591
1.25215
1.22142
1.19396
1.16878
1.14425
1.11888
1.09176
1.06263
1.0314
0.998061
0.962546
0.924642
0.884184
0.841135
0.7955
0.747396
0.696817
0.643551
0.587368
0.527788
0.464705
0.397045
0.326802
0.247498
0.176793
0.0652562
0.0639743
-31.1453
-28.1882
-25.3621
-22.6399
-20.0618
-17.6631
-15.4542
-13.4352
-11.6057
-9.96268
-8.49913
-7.20432
-6.06549
-5.06888
-4.20043
-3.44612
-2.79267
-2.22752
-1.73945
-1.31829
-0.954913
-0.641361
-0.37066
-0.136799
0.0652474
0.2398
0.390641
0.520913
0.633318
0.730107
0.813175
0.884144
0.944455
0.99542
1.03824
1.07406
1.10402
1.12921
1.15055
1.16877
1.18425
1.19677
1.20554
1.2095
1.20767
1.19959
1.18562
1.1665
1.14331
1.11782
1.09167
1.06606
1.04139
1.01731
0.992965
0.967402
0.939885
0.909968
0.877452
0.842154
0.803954
0.762739
0.718444
0.671052
0.620497
0.566755
0.509545
0.448855
0.383689
0.31592
0.239159
0.170775
0.060249
0.0648687
-33.8532
-31.2701
-28.7484
-26.2852
-23.9067
-21.6366
-19.4875
-17.4671
-15.5822
-13.8371
-12.2333
-10.7688
-9.43967
-8.23976
-7.16156
-6.19675
-5.33626
-4.57108
-3.8922
-3.29089
-2.75898
-2.28886
-1.87351
-1.50672
-1.18287
-0.89686
-0.644283
-0.421209
-0.224251
-0.0504182
0.102875
0.237897
0.356628
0.460792
0.551871
0.631177
0.699936
0.759318
0.810429
0.854347
0.892138
0.92474
0.952853
0.976923
0.997088
1.01307
1.02437
1.03019
1.02981
1.02327
1.01114
0.994359
0.97412
0.951659
0.928105
0.904105
0.879608
0.853968
0.826316
0.795874
0.762232
0.725328
0.685201
0.641853
0.595123
0.544786
0.490508
0.432371
0.369637
0.304287
0.23013
0.164322
0.0543016
0.0669452
-35.1691
-32.9632
-30.7733
-28.6086
-26.4853
-24.4186
-22.4204
-20.5012
-18.6701
-16.935
-15.3018
-13.774
-12.3534
-11.0397
-9.83103
-8.72418
-7.71485
-6.79779
-5.96729
-5.21723
-4.5414
-3.93355
-3.38773
-2.89823
-2.45961
-2.06687
-1.71542
-1.4011
-1.12014
-0.869147
-0.645052
-0.44513
-0.266929
-0.108264
0.0328127
0.158045
0.26902
0.36716
0.453714
0.529781
0.596366
0.654361
0.704536
0.747584
0.784177
0.814973
0.840518
0.861187
0.877065
0.888119
0.894193
0.895015
0.890411
0.880546
0.866006
0.847633
0.826286
0.802611
0.776973
0.749284
0.719155
0.686152
0.649935
0.610328
0.567205
0.520397
0.469569
0.414704
0.35502
0.292426
0.220951