/*--------------------------------*- C++ -*----------------------------------*\
| =========                 |                                                 |
| \\      /  F ield         | OpenFOAM: The Open Source CFD Toolbox           |
|  \\    /   O peration     | Version:  2312                                  |
|   \\  /    A nd           | Website:  www.openfoam.com                      |
|    \\/     M anipulation  |                                                 |
\*---------------------------------------------------------------------------*/
FoamFile
{
    version     2.0;
    format      ascii;
    arch        "LSB;label=32;scalar=64";
    class       surfaceScalarField;
    location    "200";
    object      phi;
}
// * * * * * * * * * * * * * * * * * * * * * * * * * * * * * * * * * * * * * //

dimensions      [0 3 -1 0 0 0 0];

oriented        oriented;

internalField   nonuniform List<scalar> 
21876
(
0.0447046
-0.00905563
-0.035649
0.0412681
0.00343657
0.0304175
0.0108505
0.0180339
0.0123835
0.00787101
0.0101628
0.00146513
0.00640586
-0.00177028
0.00323502
-0.00241806
0.000647536
-0.00147769
-0.000939482
0.000221711
-0.00169864
0.00259141
-0.00237028
0.00513378
-0.00254237
0.00743536
-0.0023023
0.00932861
-0.0018929
0.0107913
-0.00146279
0.011881
-0.00108986
0.0126672
-0.00078667
0.0132136
-0.000546509
0.0135608
-0.00034764
0.0137305
-0.000169758
0.013695
3.55542e-05
0.0135294
0.00016519
0.0133552
0.000174029
0.0131599
0.000195206
0.0129157
0.000244148
0.0126196
0.000295977
0.0122671
0.000352529
0.0118556
0.000411382
0.0113798
0.000475992
0.0108338
0.000545816
0.0102115
0.000622545
0.00950701
0.000704275
0.00871861
0.000788647
0.00784021
0.000878238
0.00688305
0.00095748
0.00586514
0.00101755
0.00479057
0.00107477
0.00365839
0.00113191
0.00245012
0.00120859
0.00100789
0.00144228
-0.00347128
0.00447968
0.0470863
-0.0190648
-0.0370772
0.0501918
0.000330984
0.0518467
0.00919544
0.0496915
0.0145384
0.0433129
0.0165411
0.0346269
0.0150915
0.0265035
0.0113579
0.020437
0.00671348
0.0168965
0.00260033
0.0158434
-0.00064637
0.0163425
-0.00287027
0.0174431
-0.00364363
0.0185369
-0.00339672
0.0194432
-0.00279871
0.0201535
-0.00217283
0.0206804
-0.00161633
0.0210417
-0.00114773
0.0212576
-0.000762109
0.0213349
-0.000424725
0.0212669
-0.000101557
0.0210305
0.000272216
0.0206961
0.000499409
0.0203467
0.000523469
0.0199886
0.000553096
0.0196049
0.000627775
0.0191861
0.000714726
0.0187201
0.000818303
0.0181979
0.000933404
0.0176094
0.00106441
0.0169448
0.00121022
0.016194
0.00137338
0.0153466
0.00155143
0.0143952
0.00174028
0.0133244
0.00194904
0.0121308
0.00215151
0.0108115
0.00233705
0.00939598
0.00249074
0.00787716
0.00265099
0.00638077
0.00270553
0.00489583
0.0029277
-0.00284704
0.0042726
0.0520951
-0.0313557
-0.0398043
0.0590989
-0.00667292
0.0633233
0.00497089
0.0664462
0.0114154
0.0674028
0.0155843
0.0654139
0.0170803
0.0611296
0.015642
0.0558378
0.0120053
0.0507922
0.0076461
0.0465162
0.00362994
0.0430661
0.00057994
0.0404804
-0.00105786
0.0385854
-0.00150168
0.0371516
-0.00136495
0.0360579
-0.00107907
0.0352251
-0.000783719
0.0345697
-0.000492494
0.0340041
-0.000196624
0.0334379
0.000141152
0.0327888
0.000547527
0.031987
0.00107383
0.031153
0.00133328
0.030374
0.0013023
0.0296464
0.00128077
0.0289381
0.00133598
0.0282261
0.00142674
0.0274863
0.0015581
0.0267007
0.00171907
0.025853
0.00191216
0.0249296
0.00213357
0.0239174
0.00238568
0.0228036
0.00266519
0.0215779
0.00296605
0.0202201
0.00330678
0.0187262
0.00364551
0.0170938
0.00396928
0.0153433
0.00424115
0.0134456
0.00454856
0.0115433
0.00460772
0.00964495
0.00482599
9.08665e-05
0.00670708
0.0559579
-0.0441525
-0.0431612
0.0657976
-0.0165128
0.0711828
-0.000414435
0.0749404
0.00765766
0.0781476
0.012377
0.0804158
0.014812
0.0810475
0.0150101
0.079967
0.0130857
0.0778223
0.00979059
0.0753296
0.00612241
0.0729291
0.00298008
0.0708009
0.00106991
0.0688586
0.000440354
0.0668709
0.000622651
0.064689
0.00110292
0.0622745
0.00163088
0.0596671
0.00211512
0.056961
0.00250965
0.0542699
0.00283249
0.0516936
0.00312393
0.0492665
0.00350112
0.0472264
0.00337333
0.0455426
0.00298605
0.0441049
0.00271838
0.0428006
0.00264018
0.0415597
0.00266755
0.0403336
0.00278409
0.0390918
0.00296074
0.0378115
0.00319238
0.0364732
0.00347167
0.0350578
0.00380104
0.0335459
0.00417697
0.031921
0.00459106
0.0301544
0.00507339
0.0282401
0.00555997
0.0261749
0.00603458
0.0239745
0.00644188
0.0215952
0.00692806
0.01916
0.00704328
0.0166888
0.0072976
0.00399176
0.0127886
0.0603437
-0.0573587
-0.0471377
0.0721715
-0.0283407
0.0802767
-0.00851974
0.0855956
0.00233856
0.0893702
0.00860222
0.0920743
0.0121078
0.0937278
0.0133564
0.0942142
0.0125992
0.0936318
0.010373
0.0922969
0.00745725
0.0905815
0.00469548
0.0888644
0.00278697
0.0873945
0.0019103
0.0861691
0.00184796
0.0850857
0.00218634
0.0840276
0.00268889
0.0828646
0.0032781
0.0814636
0.00391054
0.0797057
0.00459027
0.0775011
0.00532852
0.0748067
0.00619533
0.071988
0.00619198
0.0692162
0.00575779
0.0665792
0.00535526
0.0641028
0.00511655
0.0617934
0.00497692
0.059629
0.00494859
0.0575718
0.00501796
0.0555751
0.0051891
0.0535909
0.00545589
0.0515731
0.00581882
0.0494812
0.00626885
0.0472831
0.00678916
0.0449361
0.00742039
0.0424306
0.00806554
0.0397621
0.008703
0.0369431
0.00926084
0.0339172
0.00995385
0.0307813
0.0101792
0.0275387
0.0105401
0.0084165
0.023114
0.0656158
-0.071295
-0.0516797
0.078978
-0.0417029
0.0899466
-0.0194885
0.0979039
-0.00561884
0.10345
0.00305653
0.107092
0.00846516
0.109125
0.0113236
0.109758
0.0119658
0.109244
0.0108873
0.107931
0.00877047
0.10618
0.00644635
0.104331
0.00463618
0.102663
0.00357782
0.101254
0.00325649
0.100066
0.00337465
0.099057
0.00369761
0.0981974
0.00413764
0.0974513
0.00465669
0.0967678
0.00527382
0.0960747
0.00602171
0.0952459
0.00702427
0.0942553
0.00718254
0.0930826
0.00693052
0.0916997
0.00673809
0.0900782
0.00673799
0.0882207
0.00683436
0.0861422
0.00702696
0.0838649
0.00729525
0.0814123
0.00764156
0.0788068
0.00806136
0.0760637
0.00856179
0.0731907
0.0091419
0.0701877
0.00979209
0.0670245
0.0105837
0.063701
0.011389
0.0602133
0.0121907
0.0565675
0.0129067
0.0526835
0.013838
0.048646
0.0142169
0.044422
0.0147642
0.0134118
0.039427
0.0720611
-0.0865362
-0.0568199
0.0868413
-0.0564831
0.0999129
-0.03256
0.110453
-0.016159
0.118346
-0.00483673
0.123978
0.0028333
0.127574
0.00772828
0.129297
0.0102424
0.129438
0.0107458
0.128427
0.00978146
0.126722
0.00815202
0.124713
0.00664508
0.122737
0.00555311
0.120955
0.00503829
0.119374
0.00495641
0.117957
0.00511392
0.11668
0.00541499
0.115522
0.00581402
0.114472
0.00632432
0.113532
0.00696166
0.1127
0.00785623
0.11202
0.00786257
0.111469
0.0074815
0.111009
0.00719829
0.110573
0.00717357
0.1101
0.00730761
0.109526
0.00760033
0.108787
0.00803487
0.107815
0.00861364
0.106548
0.00932815
0.104929
0.0101805
0.10291
0.0111613
0.100453
0.0122491
0.0975113
0.013525
0.0940887
0.0148117
0.0902051
0.0160743
0.0859061
0.0172057
0.0811376
0.0186065
0.0760568
0.0192977
0.0706168
0.0202043
0.0191532
0.0648755
0.0798143
-0.10369
-0.0626603
0.0962867
-0.0729554
0.111275
-0.0475482
0.124195
-0.0290788
0.134609
-0.0152506
0.142533
-0.00509104
0.148162
0.00209922
0.151646
0.00675903
0.153185
0.0092065
0.15315
0.00981633
0.152015
0.00928695
0.150232
0.00842822
0.148217
0.00756867
0.146237
0.00701727
0.14439
0.00680337
0.142678
0.00682635
0.141082
0.00701067
0.139582
0.00731366
0.138156
0.00775099
0.136787
0.00833018
0.13547
0.00917348
0.134308
0.00902486
0.133302
0.00848665
0.13246
0.00804068
0.131759
0.00787471
0.131178
0.00788808
0.130703
0.00807578
0.130313
0.00842441
0.129984
0.00894299
0.129679
0.00963337
0.129347
0.0105122
0.128919
0.0115889
0.128306
0.0128626
0.127382
0.0144491
0.126022
0.0161714
0.124096
0.0180007
0.121489
0.019812
0.118015
0.0220806
0.113712
0.0236009
0.108459
0.0254572
0.0250331
0.102579
0.0890012
-0.123409
-0.0692826
0.10764
-0.0915945
0.124646
-0.0645542
0.139726
-0.0441583
0.152514
-0.0280387
0.162838
-0.0154148
0.170723
-0.00578552
0.176283
0.00119861
0.179672
0.00581784
0.181145
0.00834372
0.181117
0.00931483
0.180043
0.00950247
0.178377
0.00923474
0.17648
0.00891398
0.174559
0.00872417
0.172696
0.00869
0.170913
0.00879361
0.169212
0.0090145
0.16758
0.00938239
0.166001
0.0099097
0.164456
0.0107182
0.163049
0.0104317
0.161766
0.0097693
0.160615
0.00919209
0.159579
0.00891071
0.158638
0.00882933
0.15778
0.00893351
0.157
0.00920412
0.156298
0.00964526
0.155678
0.0102533
0.155151
0.0110396
0.154727
0.0120127
0.154414
0.0131754
0.154195
0.0146682
0.154039
0.0163268
0.15387
0.0181702
0.153561
0.0201207
0.152881
0.022761
0.151611
0.0248707
0.149502
0.0275658
0.0285111
0.146024
0.0997977
-0.146415
-0.0767911
0.121217
-0.113014
0.140631
-0.0839683
0.157966
-0.061493
0.173049
-0.0431217
0.185744
-0.0281098
0.195995
-0.0160365
0.203824
-0.00663064
0.209331
0.000311685
0.212699
0.00497594
0.21423
0.00778327
0.214327
0.00940524
0.213433
0.0101295
0.211957
0.0103897
0.210204
0.0104771
0.208352
0.0105423
0.20649
0.0106548
0.204664
0.0108411
0.202888
0.0111585
0.201161
0.0116362
0.199477
0.0124021
0.19794
0.0119691
0.196523
0.0111857
0.195232
0.0104833
0.194055
0.0100879
0.192969
0.00991511
0.191956
0.00994652
0.191001
0.0101585
0.190094
0.0105522
0.189229
0.0111187
0.188406
0.0118627
0.187634
0.0127844
0.186933
0.0138761
0.186321
0.0152803
0.185845
0.0168029
0.185549
0.0184669
0.185458
0.0202116
0.185548
0.0226708
0.185697
0.0247219
0.185893
0.0273696
0.0292967
0.185107
0.112429
-0.173545
-0.0852987
0.137365
-0.137949
0.159769
-0.106373
0.179704
-0.0814281
0.197187
-0.0606045
0.212222
-0.0431448
0.224811
-0.0286253
0.234972
-0.016791
0.242748
-0.00746514
0.248258
-0.000533829
0.251722
0.00431917
0.253447
0.00768061
0.253808
0.00976921
0.253205
0.0109926
0.251993
0.0116889
0.250433
0.0121019
0.248695
0.0123932
0.246881
0.0126549
0.245052
0.0129876
0.243238
0.0134499
0.241453
0.0141868
0.239809
0.0136139
0.238279
0.0127155
0.23687
0.0118923
0.23558
0.0113779
0.234393
0.011102
0.233292
0.011047
0.232264
0.011187
0.231295
0.0115208
0.230377
0.0120373
0.229501
0.0127379
0.228667
0.0136189
0.227875
0.0146676
0.22712
0.0160359
0.226425
0.0174978
0.225821
0.0190711
0.225338
0.0206941
0.224997
0.0230116
0.224805
0.0249138
0.224914
0.0272607
0.0293207
0.22489
0.127191
-0.205786
-0.0949502
0.156523
-0.167281
0.182667
-0.132518
0.205773
-0.104534
0.226008
-0.0808398
0.243538
-0.0606752
0.258494
-0.0435805
0.27097
-0.0292678
0.281048
-0.0175433
0.288806
-0.00829159
0.294403
-0.00127771
0.298082
0.00400167
0.300123
0.00772824
0.300864
0.0102518
0.30065
0.0119028
0.299783
0.012969
0.298495
0.0136809
0.296953
0.0141969
0.295271
0.0146699
0.293522
0.0151991
0.291752
0.0159565
0.290077
0.015289
0.288488
0.0143043
0.286999
0.0133812
0.285619
0.0127577
0.284343
0.0123779
0.283161
0.0122292
0.282063
0.0122852
0.28104
0.0125436
0.280086
0.0129914
0.279196
0.0136273
0.27837
0.0144446
0.27761
0.0154277
0.276903
0.016743
0.276265
0.0181362
0.275707
0.0196288
0.275238
0.0211632
0.27483
0.0234194
0.274517
0.025227
0.274359
0.0274181
0.0293329
0.274347
0.144457
-0.244317
-0.105926
0.179235
-0.20206
0.210033
-0.163316
0.237066
-0.131567
0.26062
-0.104394
0.281008
-0.0810639
0.298511
-0.0610838
0.313355
-0.0441117
0.325714
-0.0299024
0.33572
-0.0182973
0.343511
-0.0090689
0.349292
-0.00177975
0.353284
0.00373636
0.355746
0.00778965
0.35697
0.0106791
0.357246
0.0126933
0.356831
0.014096
0.355934
0.0150936
0.354718
0.0158865
0.3533
0.0166164
0.351768
0.0174884
0.350232
0.0168252
0.348719
0.0158173
0.347261
0.0148398
0.345881
0.0141368
0.344591
0.0136685
0.343389
0.0134309
0.342273
0.0134007
0.341241
0.0135761
0.340289
0.0139432
0.339417
0.0144992
0.338627
0.0152347
0.337923
0.0161313
0.337295
0.0173715
0.336762
0.0186692
0.336338
0.0200521
0.336038
0.0214638
0.33582
0.0236375
0.335733
0.0253131
0.335778
0.0273737
0.0291277
0.335983
0.164693
-0.29056
-0.11845
0.206183
-0.24355
0.242741
-0.199873
0.274643
-0.163469
0.302284
-0.132035
0.32611
-0.10489
0.346549
-0.0815228
0.363975
-0.0615379
0.378694
-0.0446218
0.390939
-0.0305423
0.400909
-0.0190388
0.408817
-0.00968739
0.414856
-0.00230287
0.419244
0.0034014
0.422216
0.00770719
0.424018
0.010891
0.424893
0.0132207
0.42506
0.0149265
0.424707
0.0162402
0.423985
0.0173383
0.423017
0.0184562
0.421884
0.017958
0.420668
0.0170334
0.419428
0.0160798
0.418212
0.0153531
0.417047
0.0148328
0.415951
0.0145271
0.414931
0.0144202
0.413994
0.0145135
0.413142
0.0147945
0.412381
0.0152604
0.411715
0.0159005
0.411152
0.0166946
0.41068
0.0178433
0.410323
0.0190263
0.410097
0.0202779
0.410021
0.0215405
0.410052
0.0236057
0.410255
0.0251103
0.410624
0.0270053
0.0285688
0.411183
0.188481
-0.346237
-0.132804
0.238212
-0.293281
0.281867
-0.243529
0.319791
-0.201393
0.352486
-0.16473
0.380528
-0.132932
0.404492
-0.105487
0.424905
-0.081951
0.442221
-0.0619379
0.456805
-0.0451263
0.468959
-0.0311927
0.478968
-0.0196964
0.487051
-0.0103858
0.493418
-0.00296549
0.49828
0.00284458
0.50185
0.00732104
0.504337
0.0107339
0.505943
0.0133202
0.506856
0.0153278
0.507238
0.0169559
0.507233
0.0184608
0.506852
0.0183389
0.50624
0.0176456
0.50549
0.0168295
0.504679
0.0161645
0.503857
0.015654
0.503062
0.0153221
0.502318
0.0151643
0.501642
0.0151891
0.501049
0.0153882
0.500548
0.0157609
0.500151
0.0162973
0.499869
0.0169767
0.499692
0.0180202
0.499645
0.0190727
0.499747
0.0201762
0.500016
0.0212714
0.50041
0.0232121
0.500994
0.0245259
0.501763
0.0262365
0.0275923
0.50274
0.216541
-0.41344
-0.149338
0.27637
-0.35311
0.328748
-0.295906
0.374095
-0.24674
0.413034
-0.203669
0.446283
-0.166181
0.474569
-0.133773
0.498577
-0.105959
0.518917
-0.0822787
0.536106
-0.0623144
0.550573
-0.0456606
0.562711
-0.0318345
0.572818
-0.0204928
0.581145
-0.0112923
0.587915
-0.00392567
0.593337
0.0018994
0.597605
0.00646575
0.600901
0.0100243
0.603397
0.0128315
0.605252
0.0151011
0.60661
0.0171022
0.607364
0.0175853
0.607718
0.0172916
0.607797
0.0167506
0.607704
0.0162568
0.607517
0.0158406
0.607294
0.0155454
0.607076
0.0153815
0.606898
0.0153676
0.606784
0.0155024
0.606754
0.0157901
0.606828
0.0162238
0.60702
0.0167843
0.607326
0.0177147
0.607772
0.0186267
0.608377
0.0195707
0.609162
0.0204871
0.610081
0.022293
0.6112
0.023407
0.612509
0.0249276
0.0260741
0.614027
0.24974
-0.494717
-0.168463
0.321931
-0.425302
0.385011
-0.358986
0.439491
-0.30122
0.486132
-0.25031
0.525814
-0.205862
0.559433
-0.167393
0.587848
-0.134374
0.61184
-0.10627
0.632085
-0.0825592
0.649163
-0.062739
0.663594
-0.0462651
0.675785
-0.0326839
0.686072
-0.0215797
0.694734
-0.0125875
0.702007
-0.00537373
0.708099
0.000373289
0.713196
0.00492721
0.717462
0.00856524
0.721048
0.0115156
0.724092
0.0140577
0.726325
0.0153523
0.728001
0.0156161
0.729264
0.0154873
0.73024
0.0152809
0.731025
0.0150543
0.731699
0.0148716
0.732321
0.0147597
0.732938
0.0147499
0.73359
0.014851
0.734306
0.0150739
0.735112
0.0154173
0.736031
0.0158653
0.737062
0.0166839
0.738234
0.0174547
0.739567
0.0182376
0.741081
0.0189733
0.742732
0.0206417
0.744583
0.0215564
0.746621
0.0228895
0.0238332
0.748862
0.262442
-0.583913
-0.173247
0.341537
-0.504397
0.410558
-0.428006
0.470068
-0.36073
0.520908
-0.301151
0.564048
-0.249002
0.60048
-0.203825
0.631159
-0.165053
0.656965
-0.132076
0.678671
-0.104265
0.696952
-0.0810206
0.712409
-0.0617221
0.725528
-0.0458031
0.736713
-0.0327642
0.746294
-0.0221685
0.754544
-0.0136236
0.761689
-0.00677214
0.767923
-0.00130688
0.773412
0.00307642
0.778298
0.00662903
0.782711
0.00964528
0.786243
0.0118205
0.789159
0.0126997
0.7916
0.0130462
0.79369
0.0131907
0.795531
0.0132138
0.797204
0.0131979
0.798778
0.0131857
0.800307
0.0132212
0.801834
0.0133232
0.803397
0.0135112
0.805024
0.0137897
0.806742
0.0141479
0.808554
0.0148719
0.810488
0.0155204
0.812563
0.0161621
0.814798
0.0167392
0.817155
0.0182844
0.819686
0.0190251
0.822381
0.0201949
0.0209642
0.82525
0.272003
-0.679883
-0.176034
0.357007
-0.5894
0.431115
-0.502115
0.494939
-0.424554
0.549385
-0.355597
0.595498
-0.295114
0.634348
-0.242676
0.66697
-0.197675
0.694319
-0.159425
0.717248
-0.127194
0.736503
-0.100276
0.75275
-0.0779687
0.766538
-0.0595912
0.778328
-0.0445541
0.7885
-0.032341
0.797369
-0.0224921
0.80519
-0.0145939
0.812176
-0.00829267
0.818503
-0.00325092
0.824321
0.000811398
0.829758
0.00420812
0.83431
0.00726806
0.838243
0.00876764
0.841683
0.00960549
0.844749
0.010125
0.847537
0.0104257
0.850129
0.0106058
0.852592
0.0107222
0.854982
0.0108306
0.857346
0.0109597
0.85972
0.011137
0.862136
0.0113738
0.864619
0.0116645
0.867179
0.0123123
0.869839
0.0128596
0.872619
0.0133829
0.875532
0.0138259
0.878552
0.0152641
0.88172
0.0158577
0.885026
0.0168886
0.0175109
0.888479
0.283606
-0.783251
-0.180238
0.375089
-0.680883
0.454796
-0.581822
0.523389
-0.493147
0.581845
-0.414053
0.631289
-0.344559
0.672876
-0.284263
0.707721
-0.23252
0.736858
-0.188562
0.761216
-0.151551
0.781611
-0.120672
0.79877
-0.0951274
0.813302
-0.074123
0.825721
-0.0569733
0.836457
-0.0430769
0.845865
-0.0318998
0.854237
-0.0229658
0.861813
-0.0158689
0.868791
-0.0102287
0.875334
-0.00573154
0.88158
-0.00203886
0.886958
0.00189106
0.89173
0.00399513
0.896017
0.00531859
0.899927
0.00621534
0.903551
0.00680148
0.906968
0.00718906
0.910242
0.00744773
0.913429
0.00764372
0.916573
0.00781551
0.919712
0.00799814
0.922876
0.00820971
0.92609
0.00844999
0.929367
0.00903587
0.932727
0.00949942
0.936186
0.00992346
0.939758
0.0102539
0.943424
0.0115986
0.947213
0.0120679
0.951121
0.0129809
0.0134789
0.955153
0.297112
-0.894683
-0.185681
0.395674
-0.779445
0.481512
-0.66766
0.555342
-0.566976
0.618219
-0.476931
0.671354
-0.397694
0.71599
-0.328899
0.753331
-0.26986
0.784492
-0.219723
0.810479
-0.177539
0.832181
-0.142374
0.850386
-0.113332
0.86576
-0.0894974
0.878872
-0.0700847
0.890196
-0.0544016
0.900132
-0.0418349
0.909006
-0.0318403
0.917091
-0.0239538
0.92461
-0.0177475
0.931746
-0.0128684
0.938655
-0.00894785
0.944711
-0.0041651
0.950184
-0.0014774
0.955186
0.000316571
0.95982
0.00158159
0.964172
0.00244891
0.968318
0.00304365
0.972318
0.00344718
0.976226
0.00373597
0.980084
0.00395726
0.983928
0.00415371
0.987788
0.00434985
0.991687
0.00455087
0.995639
0.00508438
0.999661
0.00547677
1.00377
0.00581619
1.00797
0.00605076
1.01226
0.00731163
1.01665
0.00767515
1.02115
0.00848639
0.0088786
1.02575
0.312465
-1.01489
-0.192257
0.418746
-0.885726
0.511279
-0.760193
0.590839
-0.646536
0.658565
-0.544657
0.715763
-0.454891
0.76377
-0.376907
0.803883
-0.309974
0.837306
-0.253147
0.865127
-0.205359
0.888308
-0.165555
0.907699
-0.132724
0.924029
-0.105827
0.937917
-0.0839726
0.949887
-0.0663709
0.960376
-0.0523243
0.969751
-0.0412154
0.978315
-0.0325178
0.986319
-0.0257514
0.99397
-0.0205201
1.00144
-0.0164212
1.00808
-0.0107969
1.01414
-0.00754381
1.01975
-0.00529496
1.02501
-0.00367416
1.02999
-0.0025348
1.03478
-0.00173922
1.03942
-0.00119444
1.04397
-0.000814284
1.04847
-0.000542752
1.05295
-0.000329915
1.05745
-0.000144932
1.06197
2.27578e-05
1.06655
0.000508834
1.07119
0.000838009
1.0759
0.00110275
1.0807
0.0012535
1.08557
0.00243655
1.09054
0.00270801
1.0956
0.00342943
0.0037299
1.10075
0.329665
-1.14465
-0.199908
0.444354
-1.00041
0.544188
-0.860027
0.630006
-0.732354
0.703038
-0.61769
0.76469
-0.516543
0.816405
-0.428621
0.859578
-0.353147
0.895509
-0.289078
0.925371
-0.235221
0.950206
-0.190389
0.970931
-0.153449
0.988336
-0.123232
1.00309
-0.0987311
1.01578
-0.0790543
1.02687
-0.0634136
1.03677
-0.0511135
1.04581
-0.0415605
1.05427
-0.0342184
1.0624
-0.0286439
1.07037
-0.0243969
1.07751
-0.0179328
1.08409
-0.0141258
1.09023
-0.0114344
1.09603
-0.00946891
1.10156
-0.00806754
1.1069
-0.00707945
1.1121
-0.00640007
1.11722
-0.00593333
1.1223
-0.00561465
1.12735
-0.00538679
1.13242
-0.00521269
1.13752
-0.00507643
1.14266
-0.00463646
1.14787
-0.0043665
1.15314
-0.00417052
1.15849
-0.00409568
1.16392
-0.00298771
1.16942
-0.00279867
1.17501
-0.002159
-0.00194008
1.18068
0.348754
-1.28479
-0.208611
0.472597
-1.12426
0.580386
-0.967816
0.673031
-0.824998
0.751859
-0.696518
0.818386
-0.58307
0.874166
-0.484402
0.920705
-0.399686
0.959403
-0.327775
0.991525
-0.267343
1.0182
-0.217061
1.04041
-0.175661
1.05901
-0.141838
1.07474
-0.114462
1.08822
-0.0925306
1.09997
-0.0751605
1.11043
-0.0615719
1.11997
-0.0510996
1.12889
-0.0431471
1.13747
-0.0372202
1.14591
-0.0328382
1.1535
-0.0255248
1.16054
-0.0211667
1.16715
-0.0180384
1.17341
-0.0157359
1.17943
-0.0140805
1.18526
-0.0129077
1.19096
-0.0121008
1.19658
-0.0115536
1.20215
-0.0111926
1.20772
-0.0109534
1.2133
-0.0107925
1.21891
-0.0106885
1.22457
-0.010296
1.23029
-0.0100843
1.23607
-0.00995437
1.24193
-0.00995091
1.24786
-0.0089179
1.25387
-0.00880517
1.25995
-0.00824236
-0.00809802
1.26611
0.369807
-1.43623
-0.218364
0.503614
-1.25806
0.620069
-1.08427
0.720157
-0.925086
0.805311
-0.781673
0.877166
-0.654925
0.937399
-0.544635
0.98763
-0.449917
1.02937
-0.369514
1.06398
-0.301957
1.09269
-0.245763
1.11654
-0.199521
1.13648
-0.161777
1.15329
-0.131271
1.16765
-0.106885
1.18012
-0.087629
1.19118
-0.0726356
1.20124
-0.061162
1.21064
-0.0525472
1.21966
-0.0462424
1.22855
-0.0417227
1.23656
-0.0335394
1.24402
-0.0286233
1.25104
-0.0250571
1.25772
-0.0224198
1.26416
-0.0205148
1.27041
-0.0191628
1.27654
-0.0182343
1.2826
-0.0176125
1.28863
-0.0172146
1.29464
-0.0169686
1.30067
-0.0168246
1.30674
-0.0167558
1.31286
-0.0164139
1.31903
-0.0162617
1.32528
-0.0161977
1.33159
-0.0162639
1.33798
-0.0153078
1.34444
-0.0152681
1.35098
-0.0147799
-0.0147059
1.35759
0.392922
-1.59997
-0.229184
0.537578
-1.40272
0.663473
-1.21017
0.771675
-1.03329
0.863733
-0.87373
0.941409
-0.732601
1.00651
-0.609737
1.06079
-0.504194
1.10587
-0.414593
1.14322
-0.339311
1.17416
-0.276703
1.19984
-0.225199
1.22125
-0.18319
1.23925
-0.149274
1.25457
-0.122206
1.26783
-0.100888
1.27955
-0.0843545
1.29017
-0.0717802
1.30006
-0.0624349
1.30953
-0.0557108
1.31884
-0.0510358
1.32725
-0.0419514
1.33509
-0.0364615
1.34248
-0.0324487
1.34954
-0.029473
1.35634
-0.0273183
1.36297
-0.0257896
1.36947
-0.0247432
1.37591
-0.0240513
1.38232
-0.0236214
1.38872
-0.0233733
1.39515
-0.0232506
1.40161
-0.0232205
1.40813
-0.0229335
1.41472
-0.0228435
1.42137
-0.0228471
1.42808
-0.0229831
1.43488
-0.0221075
1.44176
-0.0221398
1.4487
-0.0217262
-0.0217203
1.45572
0.418225
-1.77709
-0.241103
0.574696
-1.55919
0.710877
-1.34635
0.827926
-1.15034
0.927516
-0.973321
1.01155
-0.816635
1.08198
-0.680163
1.14068
-0.562899
1.18942
-0.463332
1.22978
-0.379674
1.26318
-0.310104
1.29087
-0.25288
1.3139
-0.206226
1.33322
-0.16859
1.3496
-0.138591
1.36373
-0.115011
1.37615
-0.0967817
1.38736
-0.0829892
1.39775
-0.0728283
1.40767
-0.0656284
1.4174
-0.0607659
1.42619
-0.0507393
1.43438
-0.0446505
1.4421
-0.0401747
1.44948
-0.0368508
1.45661
-0.0344417
1.46355
-0.0327347
1.47038
-0.0315717
1.47714
-0.0308123
1.48387
-0.0303539
1.49061
-0.0301078
1.49737
-0.0300105
1.50417
-0.0300232
1.51103
-0.0297958
1.51796
-0.0297719
1.52496
-0.0298458
1.53203
-0.0300535
1.53918
-0.029263
1.54641
-0.0293681
1.55372
-0.0290305
-0.0290924
1.56109
0.445863
-1.9688
-0.254163
0.615206
-1.72853
0.762599
-1.49374
0.889296
-1.27703
0.997107
-1.08113
1.08809
-0.907613
1.16433
-0.756413
1.22789
-0.626453
1.28064
-0.516083
1.3243
-0.423338
1.36041
-0.346207
1.39029
-0.282761
1.41511
-0.231047
1.43587
-0.189349
1.45342
-0.15614
1.46848
-0.130074
1.48167
-0.109972
1.49351
-0.0948247
1.50442
-0.0837461
1.51479
-0.0759975
1.52493
-0.0709001
1.53407
-0.0598805
1.54258
-0.0531588
1.5506
-0.0481962
1.55825
-0.0445084
1.56565
-0.0418349
1.57286
-0.0399444
1.57995
-0.0386625
1.58697
-0.037836
1.59397
-0.037351
1.60097
-0.03711
1.608
-0.0370417
1.61508
-0.0371012
1.62222
-0.0369384
1.62943
-0.0369846
1.63672
-0.0371325
1.64408
-0.0374145
1.65153
-0.0367147
1.65906
-0.0368945
1.66667
-0.0366357
-0.0367666
1.67434
0.476005
-2.17638
-0.268418
0.65938
-1.91191
0.818999
-1.65336
0.956224
-1.41426
1.07301
-1.19792
1.17158
-1.00618
1.2542
-0.83903
1.32306
-0.695314
1.3802
-0.57323
1.42749
-0.470623
1.46656
-0.385275
1.49885
-0.315058
1.52563
-0.257826
1.54797
-0.211688
1.56679
-0.174961
1.58288
-0.146158
1.59689
-0.123983
1.60938
-0.107323
1.62084
-0.0952047
1.63166
-0.0868172
1.64218
-0.0814216
1.65165
-0.0693488
1.66045
-0.0619512
1.66872
-0.0564704
1.67661
-0.0523962
1.68422
-0.0494433
1.69163
-0.0473597
1.69892
-0.0459536
1.70614
-0.0450577
1.71334
-0.0445462
1.72054
-0.0443119
1.72777
-0.0442754
1.73506
-0.0443851
1.74241
-0.0442915
1.74984
-0.0444121
1.75734
-0.0446381
1.76493
-0.044998
1.77261
-0.0443949
1.78037
-0.0446524
1.78821
-0.0444764
-0.0446784
1.79612
0.508842
-2.40129
-0.283932
0.707523
-2.11059
0.880483
-1.82632
1.0292
-1.56298
1.1558
-1.32451
1.26266
-1.11304
1.35224
-0.928614
1.42692
-0.769987
1.48888
-0.635196
1.54014
-0.521878
1.58246
-0.427597
1.61741
-0.350006
1.64633
-0.286753
1.6704
-0.235757
1.69061
-0.195167
1.7078
-0.163347
1.72268
-0.138872
1.73588
-0.120517
1.74789
-0.107218
1.75916
-0.0980819
1.77004
-0.0923069
1.7798
-0.0791114
1.78884
-0.0709857
1.79732
-0.0649474
1.80538
-0.0604582
1.81314
-0.0572052
1.82069
-0.0549143
1.82812
-0.053375
1.83546
-0.0524046
1.84278
-0.0518644
1.85011
-0.051637
1.85746
-0.051634
1.86488
-0.0517965
1.87236
-0.0517764
1.87992
-0.0519758
1.88757
-0.052284
1.8953
-0.0527256
1.90313
-0.0522258
1.91104
-0.0525648
1.91904
-0.0524761
-0.0527524
1.92711
0.544591
-2.64511
-0.300777
0.759978
-2.32598
0.947505
-2.01385
1.10878
-1.72425
1.24609
-1.46183
1.36203
-1.22898
1.45924
-1.02583
1.54028
-0.851027
1.60753
-0.702443
1.66314
-0.577489
1.70903
-0.473489
1.74689
-0.387861
1.77817
-0.318032
1.80413
-0.261717
1.82584
-0.216881
1.84422
-0.18173
1.86005
-0.154698
1.87397
-0.134441
1.88655
-0.119794
1.89825
-0.109779
1.90946
-0.103523
1.91948
-0.089126
1.9287
-0.0802103
1.93732
-0.073567
1.94549
-0.068627
1.95333
-0.0650477
1.96095
-0.0625309
1.96842
-0.0608455
1.97581
-0.0597924
1.98316
-0.059219
1.99052
-0.0589964
1.99791
-0.0590273
2.00536
-0.0592444
2.01289
-0.0593014
2.02049
-0.0595836
2.02819
-0.0599783
2.03597
-0.0605057
2.04386
-0.060116
2.05184
-0.0605408
2.0599
-0.0605448
-0.0608993
2.06805
0.583492
-2.90957
-0.319033
0.817127
-2.55961
1.02057
-2.21729
1.19558
-1.89925
1.34461
-1.61087
1.47049
-1.35486
1.57606
-1.13139
1.66408
-0.939048
1.73712
-0.775485
1.79751
-0.637879
1.84732
-0.523298
1.88836
-0.428906
1.92222
-0.351889
1.95024
-0.289743
1.9736
-0.240236
1.99327
-0.2014
2.01009
-0.17152
2.02477
-0.149124
2.03792
-0.132936
2.05002
-0.121886
2.06153
-0.115027
2.07174
-0.0993382
2.08109
-0.0895603
2.08978
-0.0822559
2.09797
-0.076822
2.10581
-0.072884
2.1134
-0.0701174
2.12082
-0.0682689
2.12815
-0.0671216
2.13544
-0.0665077
2.14273
-0.0662862
2.15005
-0.0663495
2.15743
-0.066622
2.16488
-0.0667591
2.17243
-0.0671276
2.18006
-0.0676128
2.18779
-0.0682303
2.19563
-0.0679576
2.20356
-0.0684731
2.21159
-0.0685756
-0.0690128
2.21971
0.625814
-3.19659
-0.338792
0.879398
-2.81319
1.10025
-2.43815
1.29027
-2.08928
1.45215
-1.77274
1.58891
-1.49161
1.70364
-1.24612
1.79932
-1.03473
1.87872
-0.854887
1.94436
-0.703518
1.99847
-0.57741
2.04301
-0.473451
2.07969
-0.388569
2.10998
-0.320024
2.13511
-0.265371
2.15617
-0.222456
2.17405
-0.1894
2.18952
-0.164592
2.20322
-0.146639
2.2157
-0.134371
2.22744
-0.126758
2.23778
-0.109679
2.24717
-0.0989552
2.25584
-0.0909238
2.26396
-0.084945
2.27169
-0.0806092
2.27913
-0.0775633
2.28639
-0.0755303
2.29355
-0.0742733
2.30065
-0.0736086
2.30774
-0.073382
2.31487
-0.0734747
2.32205
-0.0738017
2.32931
-0.0740208
2.33666
-0.0744785
2.34411
-0.0750581
2.35165
-0.0757697
2.35931
-0.0756213
2.36707
-0.0762325
2.37493
-0.0764399
-0.0769651
2.38289
0.671856
-3.50829
-0.360152
0.947265
-3.0886
1.18717
-2.67806
1.39365
-2.29575
1.56959
-1.94869
1.71829
-1.64031
1.84307
-1.3709
1.94715
-1.13881
2.03354
-0.941276
2.10495
-0.774924
2.16379
-0.636248
2.21217
-0.521838
2.25195
-0.428344
2.2847
-0.35277
2.31176
-0.292441
2.33431
-0.245002
2.35331
-0.208398
2.36958
-0.180868
2.38383
-0.16089
2.39665
-0.147188
2.40853
-0.138641
2.41892
-0.12006
2.42826
-0.108295
2.43679
-0.0994609
2.44473
-0.0928774
2.45221
-0.0880973
2.45939
-0.0847368
2.46635
-0.0824924
2.47318
-0.0811066
2.47995
-0.0803775
2.48671
-0.0801367
2.49349
-0.0802536
2.50032
-0.080633
2.50723
-0.0809349
2.51424
-0.081484
2.52134
-0.0821611
2.52854
-0.0829708
2.53587
-0.0829541
2.54331
-0.0836663
2.55085
-0.0839853
-0.0846042
2.55849
0.721947
-3.84702
-0.383219
1.02126
-3.38792
1.28204
-2.93884
1.50655
-2.52025
1.69792
-2.14007
1.85972
-1.8021
1.99554
-1.50672
2.10887
-1.25214
2.20294
-1.03535
2.28069
-0.852674
2.34472
-0.700283
2.39733
-0.574446
2.4405
-0.471512
2.47594
-0.388207
2.50511
-0.32161
2.52925
-0.269147
2.54943
-0.228573
2.56652
-0.197965
2.5813
-0.175664
2.59438
-0.160274
2.60632
-0.150579
2.61663
-0.130373
2.6258
-0.117457
2.63407
-0.107732
2.64166
-0.100474
2.64876
-0.0951946
2.6555
-0.0914768
2.662
-0.0889888
2.66834
-0.0874499
2.6746
-0.0866391
2.68084
-0.0863721
2.68709
-0.0865056
2.69339
-0.0869332
2.69977
-0.0873172
2.70625
-0.0879589
2.71282
-0.0887363
2.7195
-0.0896478
2.72631
-0.0897699
2.73324
-0.0905887
2.74028
-0.0910266
-0.0917456
2.74742
0.776456
-4.21536
-0.408111
1.10197
-3.71343
1.38565
-3.22251
1.62993
-2.76454
1.83825
-2.34839
2.01444
-1.97829
2.1624
-1.65468
2.2859
-1.37564
2.38843
-1.13788
2.47316
-0.937405
2.54291
-0.770037
2.60016
-0.631694
2.64705
-0.5184
2.68543
-0.426585
2.71687
-0.353057
2.74273
-0.295007
2.76414
-0.249986
2.78207
-0.215894
2.79733
-0.190922
2.8106
-0.173548
2.82248
-0.16245
2.83259
-0.140483
2.84142
-0.126291
2.84926
-0.115574
2.85635
-0.107561
2.86287
-0.101719
2.86899
-0.0975942
2.87483
-0.0948238
2.88048
-0.0931024
2.88603
-0.092188
2.89153
-0.0918794
2.89705
-0.092019
2.9026
-0.0924884
2.90824
-0.0929525
2.91397
-0.0936868
2.9198
-0.0945664
2.92573
-0.0955827
2.93181
-0.095851
2.93801
-0.096782
2.94433
-0.0973463
-0.0981722
2.95075
0.835789
-4.6162
-0.434953
1.19006
-4.0677
1.49886
-3.53132
1.76488
-3.03055
1.99182
-2.57533
2.18384
-2.17031
2.34516
-1.816
2.47985
-1.51033
2.5917
-1.24972
2.68412
-1.02983
2.76018
-0.846091
2.82253
-0.694047
2.8735
-0.569374
2.9151
-0.468177
2.94901
-0.386975
2.97671
-0.322704
2.99942
-0.272693
3.01818
-0.234652
3.03386
-0.206608
3.04722
-0.186903