/*--------------------------------*- C++ -*----------------------------------*\
| =========                 |                                                 |
| \\      /  F ield         | OpenFOAM: The Open Source CFD Toolbox           |
|  \\    /   O peration     | Version:  2312                                  |
|   \\  /    A nd           | Website:  www.openfoam.com                      |
|    \\/     M anipulation  |                                                 |
\*---------------------------------------------------------------------------*/
FoamFile
{
    version     2.0;
    format      ascii;
    arch        "LSB;label=32;scalar=64";
    class       volSymmTensorField;
    location    "200";
    object      turbulenceProperties:devReff;
}
// * * * * * * * * * * * * * * * * * * * * * * * * * * * * * * * * * * * * * //

dimensions      [0 2 -2 0 0 0 0];

internalField   nonuniform List<symmTensor> 
11040
(
(0.137837 0.27622 8.35252e-21 -0.164717 6.3353e-20 0.0268806)
(0.621096 0.317056 -8.39942e-20 -0.711155 7.84334e-19 0.0900588)
(1.19489 0.0472959 8.51507e-19 -1.30625 9.21246e-19 0.111352)
(1.60081 -0.385034 1.85938e-19 -1.67634 -1.08671e-18 0.0755312)
(1.97983 -0.91423 -6.12268e-20 -2.00021 -1.0997e-19 0.020375)
(2.94901 -2.06781 -3.91476e-18 -2.90602 -1.41994e-17 -0.0429856)
(1.90129 -2.15361 1.72358e-19 -1.77828 -7.47375e-17 -0.123005)
(1.12799 -2.20485 4.55238e-17 -0.847237 -9.71495e-17 -0.280754)
(0.800572 -2.24533 1.67549e-17 -0.434443 7.34805e-17 -0.366129)
(0.806156 -3.19354 -1.37532e-17 -0.287057 7.18426e-17 -0.519099)
(0.95693 -4.25209 -2.68442e-17 -0.485218 7.93785e-17 -0.471712)
(1.20178 -5.39147 -2.57553e-17 -0.846098 2.78773e-18 -0.355684)
(1.37127 -6.4127 -3.63598e-18 -1.14443 -1.94854e-17 -0.226844)
(1.37021 -7.01607 1.4639e-18 -1.23729 -1.07441e-17 -0.132923)
(1.27561 -7.55025 2.56361e-18 -1.18882 -1.13083e-18 -0.0867886)
(1.10245 -8.02638 3.25626e-20 -1.03853 -2.55406e-18 -0.063919)
(0.862515 -8.39615 2.0247e-18 -0.811835 -1.99134e-18 -0.05068)
(0.574986 -8.63096 -1.48119e-20 -0.532614 3.22608e-19 -0.0423717)
(0.259332 -8.72125 -8.83772e-19 -0.222254 -3.6425e-19 -0.0370776)
(-0.0634302 -8.66884 -1.70241e-19 0.0976971 -4.00881e-19 -0.0342669)
(-0.375984 -8.45117 4.73001e-19 0.408661 -7.83708e-19 -0.0326773)
(-0.631587 -8.08489 1.5995e-18 0.663634 2.41459e-18 -0.032047)
(-0.806526 -7.67065 2.56984e-19 0.838457 1.51201e-18 -0.0319318)
(-0.933414 -7.26403 1.07556e-19 0.961936 9.68399e-18 -0.0285215)
(-1.02883 -6.85999 -3.31587e-18 1.05372 -3.15734e-18 -0.0248862)
(-1.0948 -6.44483 2.05395e-18 1.11749 -2.96699e-18 -0.0226918)
(-1.13452 -6.01689 -4.50966e-19 1.15548 -4.9262e-18 -0.0209582)
(-1.14986 -5.57828 4.94952e-19 1.16935 9.98428e-20 -0.0194857)
(-1.14231 -5.12872 1.83144e-19 1.16049 -1.689e-18 -0.0181803)
(-1.11278 -4.66785 2.62313e-18 1.12986 1.80116e-18 -0.0170842)
(-1.06248 -4.19623 3.11459e-19 1.07854 4.74585e-18 -0.0160617)
(-0.992776 -3.71588 1.02226e-19 1.00786 -2.18101e-18 -0.0150807)
(-0.905288 -3.23038 3.48912e-18 0.919355 6.5987e-18 -0.0140676)
(-0.80177 -2.74249 -5.91799e-19 0.814668 -6.04714e-20 -0.0128976)
(-0.681203 -2.24533 2.47892e-18 0.692166 2.56424e-18 -0.0109629)
(-0.521345 -1.66668 -8.60181e-20 0.529271 1.18357e-18 -0.00792601)
(-0.345253 -1.0763 -1.81702e-19 0.350597 -9.67612e-21 -0.00534393)
(-0.2591 -0.798183 -2.04007e-23 0.265158 -6.15265e-25 -0.00605749)
(-0.178631 -0.545518 -5.25165e-22 0.18244 -3.9832e-23 -0.00380949)
(-0.0966296 -0.393937 -3.23654e-20 0.110172 -2.39683e-22 -0.0135428)
(-0.246922 -0.0201219 5.05633e-21 0.265627 -2.12358e-19 -0.0187046)
(0.0265298 -0.0356565 1.56247e-21 -0.018447 2.92385e-22 -0.0080828)
(0.0124761 -0.0451485 1.02426e-19 0.00501702 -1.16329e-19 -0.0174931)
(0.0426254 -0.0680436 -3.98619e-19 -0.0092816 -6.93692e-19 -0.0333438)
(0.24941 -0.144137 -7.86995e-19 -0.200663 -1.67116e-19 -0.0487475)
(0.696981 -0.335261 1.16918e-19 -0.6784 -3.86578e-19 -0.0185809)
(1.80276 -1.08391 -3.49957e-18 -1.8434 -1.97358e-18 0.0406403)
(3.09065 -2.39587 -1.52263e-17 -3.2497 3.38522e-17 0.159051)
(4.289 -4.04027 -4.37126e-17 -4.70723 1.44665e-16 0.418235)
(5.64771 -6.68564 1.93613e-17 -6.33602 -9.61002e-17 0.688308)
(6.6886 -10.0772 3.19185e-17 -7.66915 -1.31176e-16 0.980548)
(6.0555 -11.6444 4.35975e-17 -7.00358 -1.99186e-16 0.948072)
(4.7699 -11.4842 3.02879e-17 -5.47302 -2.93516e-18 0.703123)
(3.49861 -10.4455 -5.97304e-18 -3.96087 5.21137e-17 0.462261)
(2.46605 -9.15798 -3.90697e-18 -2.75955 3.87884e-17 0.293502)
(1.71802 -7.98636 -7.80058e-18 -1.90657 1.39257e-18 0.188547)
(1.18404 -6.99761 -2.39624e-18 -1.3097 4.66421e-18 0.125651)
(0.79243 -6.17023 -1.92448e-18 -0.882502 3.77947e-19 0.0900729)
(0.499642 -5.4762 8.64314e-19 -0.571292 4.2591e-18 0.0716499)
(0.279222 -4.89476 -9.3829e-19 -0.343523 1.54965e-18 0.0643015)
(0.114499 -4.40112 3.40963e-19 -0.177497 6.13241e-19 0.0629975)
(-0.010241 -3.97236 -2.17258e-18 -0.055843 1.97516e-18 0.0660839)
(-0.101292 -3.62967 -2.47111e-18 0.0325776 -7.51876e-18 0.0687146)
(-0.16557 -3.34099 4.22716e-18 0.0980792 -2.94417e-19 0.0674906)
(-0.218606 -3.08321 5.05758e-18 0.155901 -1.51658e-17 0.0627054)
(-0.259743 -2.86145 3.7898e-18 0.203278 7.54947e-18 0.056465)
(-0.288892 -2.67751 -4.98293e-18 0.237823 2.71234e-18 0.0510685)
(-0.31006 -2.52437 1.55065e-18 0.2629 9.19121e-18 0.0471602)
(-0.325202 -2.39348 -5.22544e-19 0.280991 -9.4242e-20 0.0442113)
(-0.335357 -2.27942 -4.63806e-18 0.293435 1.98509e-18 0.041922)
(-0.341256 -2.17886 -4.22374e-18 0.301154 -8.74498e-18 0.0401025)
(-0.343801 -2.08988 -5.45971e-18 0.305147 -8.67026e-18 0.0386546)
(-0.34366 -2.0106 -7.57264e-18 0.306224 -1.22325e-19 0.037436)
(-0.34132 -1.93897 -7.2747e-18 0.305026 -1.85186e-17 0.0362937)
(-0.336933 -1.87174 9.79754e-19 0.301973 2.27226e-18 0.0349598)
(-0.330918 -1.80334 -3.19176e-19 0.298246 -8.53735e-18 0.032672)
(-0.319279 -1.71475 -5.8541e-18 0.291239 -5.0277e-18 0.0280406)
(-0.302076 -1.59601 3.48175e-19 0.276723 3.26342e-20 0.0253539)
(-0.280404 -1.49412 9.65402e-20 0.257178 5.32257e-19 0.0232257)
(-0.293269 -1.41514 6.44255e-23 0.262799 3.34401e-22 0.0304697)
(-0.226153 -1.30936 1.18211e-19 0.23493 -1.02921e-19 -0.00877735)
(-0.656186 -2.09066 -1.66676e-18 0.3664 2.13713e-18 0.289786)
(0.0105263 -0.0219499 -1.23636e-20 -0.0109902 -3.57366e-20 0.000463919)
(-0.0117391 -0.0145296 -1.16621e-19 0.00805583 -1.22071e-19 0.00368325)
(-0.0165106 -0.00308088 5.84333e-20 0.0121408 1.93735e-19 0.00436976)
(-0.0119718 -0.000126514 9.93511e-20 0.00885638 9.30876e-20 0.00311542)
(0.00447016 -0.00796939 -2.5453e-19 -0.00554566 -1.48137e-19 0.00107549)
(0.0825027 -0.0636871 -2.19205e-19 -0.0804757 5.24436e-19 -0.00202693)
(0.331016 -0.280552 6.98551e-19 -0.32925 1.51702e-18 -0.00176651)
(0.740394 -0.748972 1.17494e-18 -0.749574 -2.81441e-18 0.00918051)
(1.26267 -1.55994 -2.29201e-18 -1.28628 4.25527e-18 0.0236066)
(1.8033 -2.70172 5.49858e-19 -1.83577 -1.38408e-18 0.0324709)
(2.27227 -4.08961 -3.8982e-18 -2.29919 8.68169e-18 0.0269171)
(2.58252 -5.59189 -1.15157e-17 -2.5902 -2.29163e-17 0.00768114)
(2.69759 -7.03514 5.18656e-18 -2.69501 -1.09766e-17 -0.00257657)
(2.60101 -8.20043 1.57124e-18 -2.6073 -6.02359e-18 0.00628538)
(2.31103 -8.90674 4.48609e-18 -2.33477 6.94229e-18 0.0237397)
(1.88493 -9.08297 4.6273e-18 -1.92192 1.27724e-18 0.0369873)
(1.40397 -8.78939 1.42646e-18 -1.44482 9.41745e-19 0.0408598)
(0.945879 -8.18361 6.32979e-18 -0.980575 4.14764e-19 0.0346955)
(0.556682 -7.44325 1.30606e-18 -0.577996 -6.27003e-19 0.021314)
(0.252053 -6.6994 -1.07562e-18 -0.256237 -1.62236e-18 0.00418415)
(0.0208462 -6.01931 4.4161e-18 -0.0107138 2.80356e-18 -0.0101323)
(-0.145221 -5.44411 1.86748e-18 0.165129 3.11659e-18 -0.0199079)
(-0.259164 -4.99081 -3.90358e-18 0.284029 -5.14414e-18 -0.0248643)
(-0.343272 -4.61667 -7.92978e-18 0.366769 -1.26395e-17 -0.0234969)
(-0.402913 -4.29705 -8.04121e-18 0.422455 -8.78715e-18 -0.0195427)
(-0.442217 -4.02141 9.13019e-18 0.458278 1.13422e-18 -0.0160603)
(-0.467267 -3.77909 -7.28191e-19 0.480425 2.27031e-19 -0.0131585)
(-0.481504 -3.56281 3.31522e-19 0.492507 -2.63852e-18 -0.0110031)
(-0.487165 -3.36813 6.37245e-18 0.496685 7.94689e-18 -0.00952037)
(-0.486004 -3.19302 -5.47991e-18 0.494635 9.31428e-18 -0.00863141)
(-0.479521 -3.03597 1.29661e-17 0.487615 2.4362e-18 -0.008094)
(-0.468911 -2.89587 -1.23999e-18 0.476639 1.44715e-17 -0.00772857)
(-0.455134 -2.77157 1.62386e-18 0.462594 6.76502e-18 -0.00746078)
(-0.438807 -2.66073 1.04757e-17 0.446018 -7.53663e-19 -0.00721109)
(-0.421499 -2.56153 -8.87878e-18 0.428463 4.7411e-19 -0.00696468)
(-0.402693 -2.47061 -8.5435e-19 0.409802 3.66414e-18 -0.00710819)
(-0.389649 -2.3878 3.08362e-19 0.394624 1.70042e-20 -0.00497507)
(-0.366214 -2.30201 7.15468e-18 0.372815 -6.84568e-19 -0.0066012)
(-0.394748 -2.22401 -2.4106e-19 0.389184 -7.3396e-21 0.00556356)
(-0.282462 -2.03061 5.3476e-18 0.335242 -6.62493e-19 -0.0527801)
(-0.456574 -2.28251 2.18284e-18 0.412479 -2.20753e-18 0.044095)
(0.00795025 -0.0153547 1.01327e-20 -0.00814632 2.43897e-20 0.00019607)
(-0.00349312 -0.0154293 1.69074e-20 0.00371332 7.17403e-20 -0.000220198)
(-0.0100925 -0.0090933 -5.86044e-20 0.0102978 -8.71629e-20 -0.000205276)
(-0.0114859 -0.00320622 -6.27598e-20 0.0118289 -4.1148e-20 -0.00034297)
(-0.0101815 -0.000136602 8.75808e-20 0.0106547 7.03814e-20 -0.000473179)
(-0.00660133 0.000584615 7.748e-20 0.00707878 5.41449e-20 -0.000477443)
(-0.00313146 -0.00050617 -1.38353e-20 0.00375809 -4.81839e-20 -0.00062663)
(0.00218676 -0.00599932 7.15101e-21 -0.000815034 -1.1201e-20 -0.00137173)
(0.0209236 -0.0298592 -5.72696e-20 -0.0179197 7.65845e-20 -0.00300396)
(0.056754 -0.0838738 -6.53697e-19 -0.0528857 4.93323e-20 -0.00386825)
(0.099867 -0.167369 9.95006e-20 -0.0970787 3.33324e-19 -0.00278826)
(0.146533 -0.286105 7.1209e-19 -0.145607 1.53765e-18 -0.000926264)
(0.207807 -0.476511 -2.11591e-20 -0.208399 -2.6916e-20 0.000591658)
(0.298331 -0.801844 2.40619e-18 -0.299956 -2.54147e-19 0.00162511)
(0.421641 -1.32324 -3.51286e-19 -0.423407 -1.04473e-18 0.00176604)
(0.560536 -2.06059 -1.9525e-18 -0.56124 -2.8814e-18 0.000703495)
(0.67761 -2.96483 -4.34095e-18 -0.67723 -1.35344e-19 -0.000380081)
(0.728851 -3.91773 1.01123e-18 -0.729327 -2.10892e-18 0.000475396)
(0.683893 -4.76985 -2.11735e-18 -0.688556 -1.68427e-18 0.00466271)
(0.543209 -5.39058 -9.07717e-19 -0.554507 7.60772e-19 0.0112972)
(0.335023 -5.71763 -1.55002e-18 -0.353641 -2.39864e-18 0.0186185)
(0.114696 -5.77049 -3.85015e-18 -0.136249 -2.47054e-19 0.0215534)
(-0.0700478 -5.63365 -1.24004e-19 0.0514969 2.08129e-18 0.018551)
(-0.214139 -5.395 -8.72152e-18 0.199458 2.05011e-18 0.0146814)
(-0.319697 -5.11986 -2.92871e-18 0.309609 1.0553e-17 0.0100887)
(-0.392949 -4.84782 -1.84615e-17 0.388604 -1.91009e-18 0.00434477)
(-0.44331 -4.59523 2.14342e-18 0.443885 1.99683e-18 -0.000575373)
(-0.477339 -4.36748 -8.43356e-18 0.481275 2.73977e-18 -0.00393545)
(-0.499245 -4.16501 9.94719e-18 0.50498 -5.92934e-18 -0.0057347)
(-0.511367 -3.98597 1.47266e-17 0.517703 -7.78022e-19 -0.0063358)
(-0.515275 -3.82731 -7.0683e-18 0.521354 -6.05427e-18 -0.00607925)
(-0.512018 -3.68585 2.93405e-17 0.517311 -4.46317e-18 -0.00529265)
(-0.502511 -3.55885 -1.3457e-18 0.506882 -1.39431e-19 -0.00437193)
(-0.487737 -3.4432 1.55102e-18 0.491265 -4.33308e-18 -0.0035275)
(-0.469697 -3.33733 7.16031e-19 0.472465 3.39209e-18 -0.00276775)
(-0.448497 -3.2391 -2.64681e-18 0.451212 1.47832e-18 -0.00271528)
(-0.432803 -3.14986 1.90807e-19 0.433946 -4.38909e-20 -0.00114315)
(-0.404327 -3.05829 2.14209e-18 0.4092 -1.82293e-18 -0.00487285)
(-0.433926 -2.97904 -7.54332e-20 0.425468 7.56885e-21 0.00845783)
(-0.292921 -2.77843 2.29025e-18 0.346729 7.33131e-20 -0.0538087)
(-0.321314 -2.90159 2.71552e-20 0.230384 2.58474e-19 0.0909303)
(0.00599532 -0.0104079 8.80704e-22 -0.00600107 4.04547e-23 5.74246e-06)
(-0.00122542 -0.0115166 2.08239e-20 0.00133465 1.76882e-20 -0.000109232)
(-0.006422 -0.00845997 9.41989e-20 0.0065404 1.15163e-19 -0.000118401)
(-0.00823906 -0.00412249 1.09798e-19 0.00833984 7.86828e-20 -0.000100773)
(-0.00811483 -0.000598083 -1.42504e-19 0.00814175 -1.09281e-19 -2.69204e-05)
(-0.00714701 0.00166118 7.72745e-20 0.007107 1.41815e-20 4.0011e-05)
(-0.00549922 0.00271121 -6.85376e-21 0.00546176 5.25857e-21 3.74633e-05)
(-0.00375316 0.00294547 6.39763e-21 0.00374618 -5.67037e-21 6.98229e-06)
(-0.00235069 0.00283377 4.31392e-20 0.00237915 2.1795e-20 -2.84566e-05)
(-0.00159304 0.00318093 9.17011e-20 0.0016734 3.50906e-20 -8.03595e-05)
(-0.000436082 0.00196973 2.98216e-20 0.000519755 -2.03788e-21 -8.36731e-05)
(5.99227e-05 0.00140331 -3.63517e-22 3.59624e-05 -1.49475e-20 -9.58851e-05)
(0.000309509 0.000778134 -3.41754e-21 -0.00021673 8.39385e-22 -9.27795e-05)
(0.00045132 0.000175148 -3.24287e-20 -0.00036996 -2.4033e-20 -8.13595e-05)
(0.000719576 -0.000657904 8.13785e-21 -0.000638374 1.78624e-20 -8.12016e-05)
(0.00325897 -0.00632554 -1.22703e-19 -0.0030328 1.9489e-20 -0.000226167)
(0.0131481 -0.0372207 2.07432e-19 -0.0125996 2.11234e-19 -0.00054856)
(0.0322031 -0.119372 -2.76135e-20 -0.0314269 -1.15986e-19 -0.000776179)
(0.0639732 -0.300942 -4.49338e-21 -0.0631215 1.68267e-19 -0.000851708)
(0.105741 -0.633206 3.50827e-20 -0.104778 1.57339e-19 -0.000963139)
(0.144205 -1.14727 8.4393e-19 -0.143171 3.9026e-19 -0.00103448)
(0.156193 -1.78455 2.2854e-18 -0.15514 7.99301e-19 -0.0010534)
(0.131135 -2.42221 -5.4334e-19 -0.129272 -1.71004e-19 -0.00186298)
(0.0711666 -2.98094 -4.94449e-18 -0.0699329 2.05432e-18 -0.00123369)
(-0.0122225 -3.42198 1.40411e-17 0.0109898 -1.50576e-18 0.00123268)
(-0.104718 -3.73867 8.57832e-18 0.100738 6.03089e-18 0.00398044)
(-0.195651 -3.94394 6.25729e-18 0.18909 -1.63686e-18 0.00656135)
(-0.277222 -4.05866 7.68161e-18 0.268751 2.20182e-18 0.00847092)
(-0.344938 -4.10598 -8.9708e-18 0.335648 -2.78461e-18 0.00928947)
(-0.396892 -4.10688 -1.59368e-17 0.388026 -2.57714e-18 0.00886573)
(-0.433433 -4.07826 4.16641e-19 0.42601 2.04134e-18 0.00742342)
(-0.456075 -4.03258 -1.55548e-17 0.450685 -6.55411e-18 0.00538926)
(-0.466745 -3.97853 1.26544e-18 0.463658 -4.52998e-20 0.00308666)
(-0.467791 -3.92109 2.72347e-18 0.466846 -1.63559e-18 0.000945722)
(-0.461913 -3.86355 3.74749e-19 0.462517 1.09453e-19 -0.000604153)
(-0.449908 -3.80623 1.20969e-17 0.451916 -1.04654e-18 -0.00200783)
(-0.439969 -3.75129 -6.8271e-19 0.441007 -7.92983e-19 -0.00103795)
(-0.414708 -3.68882 -1.04206e-17 0.420066 1.02801e-18 -0.00535839)
(-0.440971 -3.63456 1.80544e-19 0.430627 1.51632e-20 0.0103432)
(-0.292748 -3.4922 2.70031e-18 0.34645 -8.77631e-20 -0.0537018)
(-0.359666 -3.52486 1.00191e-17 0.243673 -8.96158e-19 0.115993)
(0.00413492 -0.00704552 4.43745e-23 -0.00419082 -5.10147e-22 5.59044e-05)
(4.16742e-05 -0.00823347 -2.78145e-22 -8.71314e-06 -3.73662e-21 -3.2961e-05)
(-0.00372227 -0.00704795 -2.43121e-20 0.00368091 -5.31545e-20 4.13574e-05)
(-0.00586875 -0.00442143 -3.91119e-20 0.00576764 -5.16544e-20 0.000101107)
(-0.00636064 -0.00174118 9.18791e-20 0.00627815 9.86938e-20 8.24993e-05)
(-0.00601198 0.000380498 -9.09808e-20 0.00596298 -6.9541e-20 4.90021e-05)
(-0.00528631 0.00197517 4.71466e-20 0.00523748 2.12523e-20 4.88316e-05)
(-0.00421167 0.00301581 -6.97494e-20 0.00414968 -2.32295e-20 6.19897e-05)
(-0.00299172 0.00344734 -6.19992e-22 0.00293868 -4.94537e-21 5.30309e-05)
(-0.00185668 0.00332666 -4.62749e-20 0.0018281 -4.51725e-20 2.8576e-05)
(-0.00106781 0.00308536 -2.59138e-20 0.00105501 -9.68175e-21 1.27983e-05)
(-0.000537309 0.00272875 4.42227e-21 0.00053194 -1.34379e-21 5.36928e-06)
(-0.000242093 0.00238355 9.51803e-21 0.000239685 5.65249e-21 2.40869e-06)
(-0.000103056 0.00210731 -2.13243e-20 0.00010021 6.05901e-21 2.84639e-06)
(-3.41627e-05 0.00188857 4.4618e-20 3.13101e-05 -2.06578e-23 2.85261e-06)
(1.61539e-05 0.00175206 6.69695e-21 -1.53278e-05 6.24268e-21 -8.26081e-07)
(6.82556e-05 0.00159296 7.92704e-21 -6.13744e-05 -6.14591e-21 -6.88117e-06)
(0.00080169 0.00880635 -5.79321e-20 -0.000722755 1.03524e-21 -7.8935e-05)
(0.00302243 0.0173409 1.17103e-20 -0.00277325 -4.46296e-20 -0.000249185)
(0.000263992 0.000689542 2.23409e-22 -0.000246843 9.97624e-22 -1.71494e-05)
(0.00339114 0.000892461 1.71142e-20 -0.00323167 -7.69041e-21 -0.000159476)
(0.0111328 -0.0200244 -1.13183e-19 -0.0108088 -9.77771e-20 -0.000324028)
(0.021316 -0.0840478 -1.00241e-21 -0.0208946 -7.58257e-20 -0.00042138)
(0.0314511 -0.209077 -4.48892e-19 -0.0309832 3.73645e-19 -0.00046793)
(0.0381472 -0.405857 -3.03663e-18 -0.0375945 -1.17805e-18 -0.000552682)
(0.0379365 -0.672934 8.07072e-19 -0.0369461 -6.56355e-19 -0.000990366)
(0.0279569 -0.9992 -2.53856e-18 -0.0261664 -6.9636e-19 -0.00179058)
(0.0067625 -1.36573 -5.61223e-20 -0.00408327 -1.46729e-18 -0.00267923)
(-0.0254096 -1.75083 -9.59716e-19 0.0286979 1.13164e-18 -0.00328833)
(-0.0667425 -2.13376 5.4248e-18 0.0700952 2.45029e-18 -0.00335263)
(-0.114332 -2.49722 -9.3598e-19 0.117029 4.495e-19 -0.00269727)
(-0.164618 -2.82851 1.21234e-18 0.165924 2.76467e-18 -0.00130586)
(-0.213655 -3.11979 -5.10657e-19 0.213141 -6.06863e-19 0.000514781)
(-0.25832 -3.36805 -1.3194e-17 0.255872 1.80738e-19 0.00244755)
(-0.296193 -3.57287 1.64898e-18 0.292023 -8.33553e-19 0.00416978)
(-0.324498 -3.73429 -3.93613e-19 0.319732 -6.01181e-19 0.00476579)
(-0.347288 -3.85622 -1.5736e-17 0.341325 1.7822e-18 0.00596278)
(-0.349588 -3.93648 6.34157e-19 0.349092 8.54673e-19 0.000496341)
(-0.388585 -3.9913 2.53228e-19 0.374735 1.46557e-19 0.0138505)
(-0.255054 -3.97697 -1.02678e-17 0.305023 9.59706e-19 -0.0499695)
(-0.441522 -4.02488 -9.06251e-18 0.32925 1.42102e-18 0.112272)
(0.00291731 -0.00486448 -5.11696e-21 -0.00295471 -3.25254e-21 3.73995e-05)
(0.00053584 -0.0058041 2.80346e-20 -0.000511884 2.10365e-20 -2.39557e-05)
(-0.0019384 -0.00561422 -2.98355e-20 0.00195524 -1.71332e-20 -1.68457e-05)
(-0.00389816 -0.00434207 -6.98665e-21 0.00391806 9.84778e-21 -1.99007e-05)
(-0.00488676 -0.0025341 8.7104e-21 0.00492616 -6.44836e-21 -3.94062e-05)
(-0.0050022 -0.000778453 2.71604e-20 0.00505123 2.62216e-20 -4.90274e-05)
(-0.00459358 0.000680144 -2.51958e-20 0.00463132 -3.20835e-20 -3.77362e-05)
(-0.00388305 0.00180878 7.36996e-20 0.00389911 4.46035e-20 -1.60585e-05)
(-0.00297634 0.00256544 2.73783e-20 0.00297472 5.12333e-21 1.61202e-06)
(-0.0020203 0.00292286 -3.94342e-20 0.00201011 7.35693e-21 1.01911e-05)
(-0.00114098 0.00287246 3.28031e-20 0.00112824 6.74432e-21 1.27397e-05)
(-0.000495886 0.00261072 -3.00166e-20 0.000485686 -7.99034e-21 1.02004e-05)
(-9.78881e-05 0.00224924 2.88905e-20 9.39955e-05 1.69413e-20 3.8926e-06)
(9.97191e-05 0.00192161 -6.5746e-21 -9.94567e-05 -5.57972e-21 -2.62365e-07)
(0.000186047 0.0016827 -4.53865e-20 -0.000185717 -2.55034e-20 -3.30286e-07)
(0.000227457 0.00150699 1.52951e-21 -0.000227818 8.88457e-21 3.60787e-07)
(0.000248007 0.00134827 -1.82099e-20 -0.000248214 -1.99007e-21 2.07197e-07)
(0.000249838 0.00117574 7.88903e-21 -0.000249663 2.12013e-21 -1.74836e-07)
(0.000250608 0.00105006 -1.35697e-20 -0.000250221 -2.68895e-21 -3.87808e-07)
(0.00025659 0.000968153 3.89528e-21 -0.000255568 -1.81847e-21 -1.02203e-06)
(0.000356022 0.0011911 1.21789e-21 -0.000353472 3.9008e-21 -2.54979e-06)
(0.000303131 0.000868676 -3.04915e-21 -0.00030039 -4.94017e-22 -2.74104e-06)
(0.000360864 0.000858922 -5.81583e-21 -0.000356586 -1.01758e-21 -4.27799e-06)
(0.000733732 0.00135497 2.02242e-22 -0.000725023 1.43359e-21 -8.70906e-06)
(0.00222478 0.00263876 -3.42885e-20 -0.00220742 2.07332e-20 -1.73596e-05)
(0.00535253 0.00180777 9.8719e-20 -0.00533584 6.08198e-22 -1.66851e-05)
(0.0096839 -0.00741655 -1.11094e-19 -0.00969468 2.86144e-20 1.07821e-05)
(0.0148878 -0.0333536 -4.51863e-19 -0.0149539 2.0972e-20 6.61526e-05)
(0.0202079 -0.0868687 8.1517e-20 -0.0203216 1.3657e-19 0.000113708)
(0.0245792 -0.180738 1.40721e-18 -0.0246354 -2.32131e-19 5.62162e-05)
(0.0265825 -0.327162 1.40626e-18 -0.0263344 -3.94336e-19 -0.000248158)
(0.0247393 -0.535483 2.98655e-18 -0.0238428 -3.62987e-19 -0.00089652)
(0.0179133 -0.810447 -3.42651e-18 -0.0159932 3.12397e-19 -0.00192002)
(0.0051656 -1.15145 -7.56564e-18 -0.00201127 1.53827e-18 -0.00315433)
(-0.014059 -1.54984 -8.649e-18 0.0182481 6.48069e-19 -0.00418904)
(-0.0389247 -1.98724 1.00273e-17 0.0438112 -6.58905e-19 -0.0048865)
(-0.0707601 -2.43894 1.02318e-17 0.0744286 -3.78405e-19 -0.00366852)
(-0.0978164 -2.87863 1.20651e-17 0.103186 -8.69241e-19 -0.00536957)
(-0.160307 -3.2857 1.2702e-17 0.151377 -1.00371e-18 0.00892999)
(-0.0800678 -3.60994 -3.32973e-20 0.117981 -6.04326e-20 -0.0379134)
(-0.388455 -3.9643 -1.32055e-17 0.285131 6.83345e-19 0.103324)
(0.00204456 -0.0034109 -2.01529e-21 -0.00207641 -1.63301e-21 3.18472e-05)
(0.000609459 -0.00406918 -1.63239e-20 -0.000600307 -1.26446e-20 -9.15223e-06)
(-0.000937307 -0.00418597 1.83629e-20 0.000940148 1.82395e-20 -2.8414e-06)
(-0.00240104 -0.00364561 2.34581e-20 0.0023949 1.81347e-20 6.14049e-06)
(-0.00344028 -0.00257306 4.43594e-20 0.00343421 2.37702e-20 6.06703e-06)
(-0.00390928 -0.00129486 -4.99375e-20 0.0039088 -4.25508e-20 4.83938e-07)
(-0.00388359 -7.6829e-05 -7.96825e-20 0.00388551 -3.43569e-20 -1.92344e-06)
(-0.0034957 0.000948656 -4.48862e-20 0.00349367 -2.89468e-20 2.0281e-06)
(-0.00285758 0.00170949 8.57189e-21 0.00284913 4.49621e-21 8.44854e-06)
(-0.00209209 0.00215993 4.11759e-20 0.00208056 2.93488e-20 1.15378e-05)
(-0.00132981 0.00230168 -8.00242e-20 0.0013196 -3.24397e-20 1.02035e-05)
(-0.000683992 0.00219597 1.25391e-20 0.000677131 7.67352e-21 6.86087e-06)
(-0.000218964 0.00194387 6.87133e-20 0.000215413 6.0693e-21 3.55072e-06)
(6.59647e-05 0.00165658 -5.30544e-20 -6.81915e-05 -1.27368e-20 2.22679e-06)
(0.000222769 0.00140736 -1.33966e-20 -0.000226513 9.51736e-21 3.74413e-06)
(0.000311979 0.0012151 6.36309e-20 -0.000317752 9.3102e-21 5.77318e-06)
(0.000372023 0.00107116 1.34787e-20 -0.000378436 -7.93492e-22 6.41225e-06)
(0.000412516 0.000948192 -1.10292e-20 -0.000418459 1.65085e-21 5.94296e-06)
(0.00044422 0.000853979 -8.84911e-21 -0.000449774 1.933e-21 5.55405e-06)
(0.000449493 0.000749124 -1.50476e-20 -0.000454318 -1.17117e-21 4.82505e-06)
(0.000419797 0.000628569 2.35681e-20 -0.000423686 1.13664e-21 3.88862e-06)
(0.0003775 0.000526457 -6.78948e-21 -0.000380411 -7.30015e-23 2.91112e-06)
(0.000352922 0.000475428 -4.11798e-21 -0.0003543 6.97447e-22 1.37789e-06)
(0.000325806 0.000437173 4.61312e-23 -0.000325895 9.92199e-23 8.8988e-08)
(0.000349632 0.000471779 -4.19224e-21 -0.000349213 -5.76634e-22 -4.19153e-07)
(0.000552235 0.000739382 6.94389e-21 -0.000551093 7.1744e-23 -1.14207e-06)
(0.000319089 0.000411501 -4.24321e-21 -0.00031821 3.39168e-22 -8.79215e-07)
(0.00357927 0.00423924 8.2838e-21 -0.00357144 6.63291e-21 -7.8283e-06)
(0.000366867 0.000366741 9.54243e-21 -0.000366872 -1.05919e-21 4.32788e-09)
(0.00225513 0.00158293 5.57464e-21 -0.00226366 -1.05802e-20 8.53481e-06)
(0.00408068 0.000988252 -2.94433e-19 -0.00411586 1.72221e-20 3.51784e-05)
(0.00711566 -0.00323257 -1.40595e-19 -0.00721415 -1.69216e-20 9.84893e-05)
(0.0114782 -0.0172164 3.17024e-19 -0.0116869 1.21877e-20 0.000208767)
(0.0167989 -0.0515699 1.2422e-18 -0.0171284 -3.36087e-20 0.00032952)
(0.0225924 -0.122591 1.38016e-19 -0.0229607 1.34342e-19 0.000368288)
(0.0282591 -0.25067 1.6088e-19 -0.0283263 -1.04782e-19 6.71425e-05)
(0.0323043 -0.455743 -1.76312e-20 -0.0318957 -1.11701e-19 -0.000408584)
(0.0386054 -0.75541 3.47679e-19 -0.035678 -2.12975e-19 -0.0029274)
(0.0270351 -1.15941 -5.71717e-18 -0.0281428 3.35425e-19 0.0011077)
(0.0851523 -1.61978 1.27178e-19 -0.0606233 -6.93705e-21 -0.024529)
(-0.105702 -2.28789 7.74873e-18 0.0507971 -6.24326e-19 0.054905)
(0.00143499 -0.00242745 1.45679e-21 -0.00145834 9.83804e-22 2.33493e-05)
(0.000533489 -0.00286992 -8.77835e-23 -0.000527973 8.26384e-22 -5.5159e-06)
(-0.000429539 -0.00304053 3.01741e-20 0.000431035 1.7035e-20 -1.49602e-06)
(-0.00142879 -0.00286428 1.61695e-21 0.00142727 -2.58071e-21 1.52175e-06)
(-0.0022935 -0.00231424 3.69166e-21 0.00229456 -3.94834e-21 -1.05879e-06)
(-0.00286289 -0.0015035 1.13456e-21 0.00287031 9.52911e-21 -7.42051e-06)
(-0.00308617 -0.00059633 3.39784e-20 0.00309823 2.69196e-20 -1.20589e-05)
(-0.00299226 0.000271596 -2.96532e-21 0.00300377 -2.52321e-21 -1.15145e-05)
(-0.00264021 0.00100059 1.01101e-21 0.00264741 1.46311e-20 -7.20364e-06)
(-0.00211272 0.00151712 8.22802e-20 0.0021157 2.26903e-20 -2.9841e-06)
(-0.00151405 0.00179101 6.99501e-21 0.0015153 8.69038e-21 -1.25246e-06)
(-0.000945485 0.00184196 -6.01292e-20 0.000946663 -1.52411e-20 -1.17818e-06)
(-0.0004821 0.00173019 -9.42445e-21 0.000483732 -1.70516e-20 -1.63137e-06)
(-0.000153307 0.00153735 1.53733e-20 0.000155578 1.61044e-20 -2.27028e-06)
(5.74312e-05 0.00133255 -1.84355e-20 -5.53469e-05 -8.44618e-21 -2.08431e-06)
(0.000189631 0.00115134 -1.59041e-20 -0.00018826 -1.09496e-20 -1.37048e-06)
(0.0002782 0.000999111 -2.53032e-20 -0.000277108 -3.53236e-21 -1.09204e-06)
(0.000343422 0.000870834 3.63716e-20 -0.000342095 6.68566e-21 -1.32773e-06)
(0.000394712 0.000758724 -9.24551e-21 -0.000393281 -7.50349e-22 -1.43027e-06)
(0.000440067 0.000661955 3.25448e-22 -0.000438789 3.42014e-21 -1.27761e-06)
(0.000474277 0.00056647 -1.19173e-21 -0.000473414 -7.37554e-21 -8.62651e-07)
(0.000482205 0.000463982 2.75086e-21 -0.000481977 3.8135e-21 -2.27804e-07)
(0.000471938 0.000374513 -2.61941e-21 -0.000471785 6.84528e-22 -1.52514e-07)
(0.000439995 0.000297905 -5.54215e-22 -0.000439781 -5.6401e-23 -2.14206e-07)
(0.000407836 0.00024514 -1.26584e-20 -0.000407943 7.94643e-22 1.06928e-07)
(0.000367988 0.000203748 8.62987e-21 -0.00036831 -1.31347e-22 3.22212e-07)
(0.000336037 0.000177183 -5.89465e-22 -0.000336211 -1.85449e-22 1.74404e-07)
(0.000306452 0.000158722 -3.42675e-21 -0.000306336 4.58761e-22 -1.15589e-07)
(0.000295646 0.000154131 -6.28126e-21 -0.000295225 -7.99472e-22 -4.2076e-07)
(0.000310702 0.00016486 -2.62229e-21 -0.000309953 5.06571e-22 -7.4932e-07)
(0.000362521 0.000194295 1.17417e-20 -0.000361465 8.81045e-22 -1.05653e-06)
(0.000771774 0.000403343 -9.11745e-21 -0.000769916 2.42295e-21 -1.85866e-06)
(0.000266566 0.000124805 -4.91616e-23 -0.000266494 -6.29751e-23 -7.13196e-08)
(0.000347136 0.000116343 -7.98951e-21 -0.00034846 -3.97896e-22 1.32475e-06)
(0.000838522 5.0684e-05 4.37406e-20 -0.000847411 -2.43235e-21 8.88906e-06)
(0.00255771 -0.00116716 -2.07671e-20 -0.00260202 -1.52163e-22 4.43159e-05)
(0.00536323 -0.00743991 4.00507e-20 -0.0055253 4.1028e-21 0.00016207)
(0.00992157 -0.0274478 -1.36173e-18 -0.0100867 8.75195e-20 0.000165104)
(0.014302 -0.0795841 -5.77298e-20 -0.0154007 1.37815e-20 0.00109876)
(0.0316671 -0.172602 -2.63008e-22 -0.0285319 8.02227e-22 -0.00313525)
(0.0183722 -0.417126 3.35841e-18 -0.0305625 -1.38739e-19 0.0121903)
(0.00100231 -0.00174479 -4.61748e-21 -0.00101976 -2.54768e-21 1.7446e-05)
(0.000416081 -0.00203688 4.98556e-21 -0.000412993 2.46845e-21 -3.08848e-06)
(-0.000192783 -0.00217969 5.28576e-22 0.000192637 -2.80466e-21 1.4649e-07)
(-0.000845281 -0.00214392 -2.32569e-20 0.000842663 -1.42547e-20 2.61776e-06)
(-0.00147565 -0.00188533 -1.49745e-21 0.00147322 3.74428e-21 2.42581e-06)
(-0.00198348 -0.00142004 2.69758e-20 0.00198288 1.21822e-20 6.08149e-07)
(-0.00229539 -0.000818038 -1.51732e-21 0.00229738 -9.77745e-21 -1.99303e-06)
(-0.00238496 -0.000167867 -5.1957e-20 0.0023886 -1.7814e-20 -3.64473e-06)
(-0.00226159 0.000446559 8.8035e-20 0.00226468 3.33384e-20 -3.08977e-06)
(-0.00196289 0.000951681 -2.7828e-20 0.00196387 -2.76693e-20 -9.8621e-07)
(-0.00155251 0.0012973 3.4912e-20 0.00155183 1.04431e-20 6.83935e-07)
(-0.00110628 0.00146909 3.55971e-20 0.00110501 1.3781e-20 1.27113e-06)
(-0.000694307 0.00148822 -5.59815e-20 0.000692952 -1.32017e-20 1.35498e-06)
(-0.000361466 0.00140364 4.11872e-20 0.000360525 3.78043e-21 9.41245e-07)
(-0.000118665 0.00126993 -5.39109e-20 0.000117872 -4.78486e-21 7.93601e-07)
(4.94464e-05 0.00112698 1.66162e-20 -5.05831e-05 8.55693e-21 1.13667e-06)
(0.000166501 0.000993383 1.05784e-20 -0.000167948 1.9902e-21 1.44637e-06)
(0.000251311 0.000873502 -1.07408e-21 -0.000252693 1.69978e-21 1.38165e-06)
(0.000315454 0.000765626 1.09407e-23 -0.000316623 -7.77538e-23 1.16919e-06)
(0.000366368 0.000667397 -1.08456e-21 -0.000367364 -1.76575e-21 9.96834e-07)
(0.000407854 0.000576064 -1.53682e-20 -0.000408716 9.94926e-22 8.61365e-07)
(0.000439431 0.00049028 1.91294e-20 -0.000440288 -5.0151e-22 8.57298e-07)
(0.000458458 0.000409628 -3.46668e-21 -0.00045909 1.37156e-21 6.32203e-07)
(0.000469787 0.000339338 1.38752e-22 -0.000470037 -2.36061e-22 2.49947e-07)
(0.000469271 0.000275182 2.92626e-22 -0.000469452 1.51904e-21 1.80945e-07)
(0.000462508 0.000218809 3.78873e-21 -0.000462792 1.10035e-22 2.83753e-07)
(0.000444268 0.000166407 -8.101e-21 -0.000444547 2.72479e-23 2.79385e-07)
(0.00042768 0.000123104 7.98152e-21 -0.00042788 1.08111e-22 2.00571e-07)
(0.000385788 8.19344e-05 -7.07918e-21 -0.000385945 7.97787e-22 1.57039e-07)
(0.000352094 5.2239e-05 6.6128e-21 -0.0003522 -2.37652e-22 1.0557e-07)
(0.000319456 3.08983e-05 -2.92587e-21 -0.000319447 -7.57838e-22 -8.67838e-09)
(0.000287375 1.68986e-05 8.17157e-21 -0.000287186 -3.40559e-22 -1.89328e-07)
(0.000264882 9.34986e-06 4.62839e-21 -0.000264462 -4.23298e-22 -4.19736e-07)
(0.000252085 6.45332e-06 2.96896e-23 -0.000251378 5.10029e-22 -7.06525e-07)
(0.000241054 5.88515e-06 4.55683e-21 -0.000240231 -7.79181e-22 -8.23188e-07)
(0.000244609 5.26612e-06 -6.32294e-21 -0.000243578 3.42725e-22 -1.03174e-06)
(0.000462162 -7.95182e-06 2.40733e-20 -0.000462302 -1.7455e-21 1.40472e-07)
(0.00159838 -0.000182133 7.88788e-20 -0.00159374 -2.15923e-21 -4.64197e-06)
(0.000264908 -0.000125217 -1.13064e-21 -0.000271813 -9.3695e-23 6.9057e-06)
(0.000935882 -0.000772384 3.64757e-21 -0.000914201 -1.38283e-22 -2.16814e-05)
(0.00488553 -0.0108503 -3.09589e-19 -0.00538882 1.46971e-20 0.000503297)
(0.000696169 -0.001263 -1.53424e-23 -0.000709018 4.60525e-24 1.28493e-05)
(0.00030474 -0.00145441 -2.98083e-20 -0.000302665 -1.43796e-20 -2.07557e-06)
(-8.94389e-05 -0.00155669 -5.81751e-22 8.92958e-05 -1.63026e-21 1.43146e-07)
(-0.000511846 -0.0015647 -3.47345e-20 0.000510146 -1.43891e-20 1.69974e-06)
(-0.000942407 -0.00144962 5.3924e-20 0.000940789 2.73054e-20 1.61799e-06)
(-0.0013327 -0.00120095 -3.85727e-20 0.00133196 -2.247e-20 7.4141e-07)