/*--------------------------------*- C++ -*----------------------------------*\
| =========                 |                                                 |
| \\      /  F ield         | OpenFOAM: The Open Source CFD Toolbox           |
|  \\    /   O peration     | Version:  2312                                  |
|   \\  /    A nd           | Website:  www.openfoam.com                      |
|    \\/     M anipulation  |                                                 |
\*---------------------------------------------------------------------------*/
FoamFile
{
    version     2.0;
    format      ascii;
    arch        "LSB;label=32;scalar=64";
    class       volScalarField;
    location    "200";
    object      turbulenceProperties:nuEff;
}
// * * * * * * * * * * * * * * * * * * * * * * * * * * * * * * * * * * * * * //

dimensions      [0 2 -1 0 0 0 0];

internalField   nonuniform List<scalar> 
11040
(
3.78899e-05
7.0862e-05
0.000120143
0.000189441
0.000323876
0.000754528
0.000842369
0.000854179
0.000926705
0.00133456
0.00158415
0.00176693
0.00185785
0.0018268
0.00181093
0.00181574
0.00182654
0.00183373
0.00183379
0.00182625
0.00180812
0.00178066
0.00175099
0.00172154
0.00169134
0.00165919
0.00162443
0.00158667
0.00154512
0.00149895
0.0014473
0.00138933
0.00132413
0.00124982
0.00115816
0.00099388
0.000763666
0.000695888
0.00063308
0.000601089
0.000750337
1.52161e-05
1.62255e-05
3.47573e-05
9.6843e-05
0.000183306
0.000416835
0.000754815
0.00123346
0.00201923
0.0030577
0.00375681
0.00410688
0.00427466
0.00435622
0.00440237
0.00441075
0.00437265
0.0042955
0.00419976
0.0041038
0.00401219
0.00393261
0.00386185
0.00379275
0.00372639
0.0036671
0.00361585
0.00357106
0.00353075
0.00349371
0.00345939
0.0034275
0.00339762
0.00336814
0.00333458
0.00327473
0.00317518
0.00310867
0.00308116
0.00306009
0.00375952
1.63686e-05
1.65834e-05
1.60178e-05
1.97824e-05
3.44035e-05
9.06227e-05
0.000217494
0.000407921
0.000687162
0.00107754
0.0016148
0.00227697
0.00301386
0.00374927
0.00439473
0.00488458
0.00520588
0.00539671
0.0055161
0.00561095
0.00569398
0.00575821
0.00580379
0.00583452
0.00585438
0.00586928
0.00588161
0.00589111
0.00589644
0.00589713
0.00589356
0.00588669
0.00587763
0.00586636
0.00585222
0.00583012
0.00580003
0.00577292
0.00577306
0.00572881
0.00623096
1.61418e-05
1.62034e-05
1.61603e-05
1.55018e-05
1.4944e-05
1.34985e-05
1.49779e-05
2.89349e-05
6.99841e-05
0.000130417
0.00020088
0.000290344
0.000434467
0.000684921
0.00108984
0.00167149
0.00241121
0.00324669
0.00408886
0.00484851
0.00546726
0.00592132
0.00624117
0.00648579
0.00669062
0.00687187
0.0070344
0.00717905
0.00730674
0.00741965
0.00752064
0.00761229
0.00769641
0.00777347
0.00784329
0.00790402
0.00795834
0.00800521
0.00807187
0.00809357
0.00840725
1.61462e-05
1.61495e-05
1.61844e-05
1.61278e-05
1.58377e-05
1.47087e-05
1.26371e-05
1.08909e-05
1.02124e-05
1.29284e-05
1.00916e-05
1.02358e-05
1.00392e-05
1.0336e-05
1.33659e-05
5.05208e-05
0.000176402
0.000394681
0.000764792
0.00132717
0.00209423
0.0029775
0.00385318
0.00466304
0.00537574
0.00598157
0.0064901
0.0069196
0.00729066
0.00762126
0.00792455
0.00820847
0.00847683
0.00873125
0.00897167
0.00919645
0.0094074
0.00960306
0.00980391
0.00997504
0.0102138
1.61193e-05
1.61212e-05
1.61234e-05
1.61304e-05
1.6137e-05
1.61161e-05
1.578e-05
1.48145e-05
1.35365e-05
1.20707e-05
1.13822e-05
1.09073e-05
1.06158e-05
1.03754e-05
1.00709e-05
1.00455e-05
1e-05
6.37224e-05
0.0001613
1.06575e-05
0.000113576
0.000343909
0.000676449
0.00112847
0.00169684
0.00235894
0.00308894
0.00385681
0.00463407
0.00539658
0.00612692
0.00681475
0.00745643
0.0080553
0.00861616
0.00914253
0.00963874
0.0101097
0.0105641
0.0109926
0.0113894
1.61149e-05
1.61181e-05
1.61212e-05
1.61248e-05
1.61268e-05
1.61428e-05
1.61981e-05
1.62548e-05
1.62346e-05
1.61802e-05
1.581e-05
1.55855e-05
1.53181e-05
1.50379e-05
1.4745e-05
1.42734e-05
1.33847e-05
1.19467e-05
1.07625e-05
1e-05
1.26599e-05
1.00137e-05
1.1576e-05
2.37603e-05
7.45134e-05
0.000189357
0.000371275
0.000638174
0.0010054
0.00148776
0.00208867
0.00280299
0.0036199
0.00452433
0.00549341
0.00649747
0.0075046
0.00849788
0.00945281
0.0103478
0.0112363
1.61142e-05
1.61169e-05
1.61187e-05
1.61205e-05
1.61225e-05
1.61233e-05
1.61279e-05
1.61529e-05
1.62046e-05
1.62885e-05
1.63683e-05
1.64368e-05
1.64882e-05
1.65263e-05
1.65614e-05
1.6599e-05
1.66639e-05
1.65014e-05
1.63253e-05
1.54254e-05
1.36031e-05
1.17334e-05
1.07935e-05
1.00008e-05
1.08445e-05
1.73331e-05
1.01715e-05
0.000116816
1.24065e-05
8.02055e-05
0.000155413
0.000296359
0.000534837
0.000896846
0.00141714
0.0021178
0.00300121
0.0040742
0.00530961
0.00662822
0.00822527
1.61133e-05
1.61153e-05
1.61161e-05
1.61168e-05
1.61178e-05
1.61191e-05
1.61201e-05
1.61206e-05
1.61228e-05
1.61301e-05
1.61457e-05
1.61689e-05
1.61972e-05
1.62289e-05
1.62627e-05
1.63072e-05
1.63613e-05
1.64369e-05
1.65083e-05
1.66826e-05
1.66875e-05
1.61217e-05
1.53922e-05
1.43008e-05
1.33416e-05
1.21347e-05
1.11634e-05
1.02619e-05
1.00001e-05
1.06587e-05
1.27054e-05
2.7947e-05
1.01372e-05
1.41519e-05
3.75989e-05
0.000128901
0.000314148
0.000645765
0.00118353
0.00190273
0.00316559
1.61122e-05
1.61131e-05
1.61128e-05
1.61125e-05
1.61124e-05
1.61128e-05
1.61134e-05
1.6114e-05
1.61143e-05
1.61134e-05
1.61118e-05
1.61109e-05
1.61112e-05
1.61126e-05
1.61151e-05
1.61183e-05
1.61244e-05
1.61376e-05
1.61539e-05
1.6193e-05
1.62698e-05
1.63662e-05
1.64184e-05
1.65611e-05
1.6518e-05
1.6353e-05
1.58105e-05
1.53387e-05
1.39602e-05
1.28739e-05
1.18301e-05
1.08216e-05
1.02137e-05
1.00577e-05
1.01138e-05
1.09948e-05
2.29721e-05
8.87011e-05
1.72763e-05
6.43144e-05
0.00035656
1.61106e-05
1.61102e-05
1.6109e-05
1.61081e-05
1.61075e-05
1.61074e-05
1.61076e-05
1.6108e-05
1.61084e-05
1.61088e-05
1.61084e-05
1.61081e-05
1.61076e-05
1.6107e-05
1.61063e-05
1.61054e-05
1.61042e-05
1.61028e-05
1.61018e-05
1.61007e-05
1.61014e-05
1.61128e-05
1.61349e-05
1.61734e-05
1.62257e-05
1.62963e-05
1.63628e-05
1.64302e-05
1.65138e-05
1.64426e-05
1.6229e-05
1.56649e-05
1.4713e-05
1.33563e-05
1.21242e-05
1.0985e-05
1.01212e-05
1.00031e-05
1.00206e-05
1.01245e-05
2.24067e-05
1.61084e-05
1.61069e-05
1.61054e-05
1.61043e-05
1.61037e-05
1.61035e-05
1.61036e-05
1.61038e-05
1.61041e-05
1.61043e-05
1.61044e-05
1.61043e-05
1.61045e-05
1.61048e-05
1.61052e-05
1.61055e-05
1.61058e-05
1.61058e-05
1.61057e-05
1.61051e-05
1.61037e-05
1.61014e-05
1.60998e-05
1.60988e-05
1.61001e-05
1.61046e-05
1.61177e-05
1.61371e-05
1.61737e-05
1.62261e-05
1.62943e-05
1.63665e-05
1.64384e-05
1.65152e-05
1.64201e-05
1.60652e-05
1.51371e-05
1.33965e-05
1.16528e-05
1.06419e-05
1.00106e-05
1.61057e-05
1.61038e-05
1.61024e-05
1.61017e-05
1.61014e-05
1.61014e-05
1.61016e-05
1.61018e-05
1.6102e-05
1.61022e-05
1.61024e-05
1.61023e-05
1.61023e-05
1.61025e-05
1.61028e-05
1.61031e-05
1.61036e-05
1.61041e-05
1.61046e-05
1.61052e-05
1.61056e-05
1.61057e-05
1.61055e-05
1.61049e-05
1.6104e-05
1.61027e-05
1.61014e-05
1.61001e-05
1.60992e-05
1.61009e-05
1.61066e-05
1.61201e-05
1.61438e-05
1.61952e-05
1.62743e-05
1.63834e-05
1.65027e-05
1.66135e-05
1.63435e-05
1.61095e-05
1.4427e-05
1.61029e-05
1.61013e-05
1.61006e-05
1.61005e-05
1.61005e-05
1.61007e-05
1.61009e-05
1.61011e-05
1.61013e-05
1.61015e-05
1.61017e-05
1.61018e-05
1.61017e-05
1.61017e-05
1.61018e-05
1.6102e-05
1.61023e-05
1.61026e-05
1.61029e-05
1.61034e-05
1.61038e-05
1.61042e-05
1.61045e-05
1.61048e-05
1.6105e-05
1.61052e-05
1.61052e-05
1.61051e-05
1.61047e-05
1.61039e-05
1.61028e-05
1.61012e-05
1.60996e-05
1.60989e-05
1.61016e-05
1.61141e-05
1.61407e-05
1.62026e-05
1.6304e-05
1.64434e-05
1.66117e-05
1.61005e-05
1.60999e-05
1.60999e-05
1.61001e-05
1.61003e-05
1.61005e-05
1.61006e-05
1.61008e-05
1.61009e-05
1.61011e-05
1.61012e-05
1.61014e-05
1.61015e-05
1.61016e-05
1.61015e-05
1.61015e-05
1.61016e-05
1.61017e-05
1.61019e-05
1.61022e-05
1.61024e-05
1.61026e-05
1.61028e-05
1.61029e-05
1.61031e-05
1.61033e-05
1.61035e-05
1.61037e-05
1.61039e-05
1.61041e-05
1.61042e-05
1.61042e-05
1.61039e-05
1.61033e-05
1.61019e-05
1.61e-05
1.60979e-05
1.60956e-05
1.61016e-05
1.61088e-05
1.6169e-05
1.60988e-05
1.60995e-05
1.60998e-05
1.61e-05
1.61001e-05
1.61001e-05
1.61002e-05
1.61002e-05
1.61003e-05
1.61004e-05
1.61005e-05
1.61006e-05
1.61007e-05
1.61008e-05
1.61009e-05
1.6101e-05
1.6101e-05
1.6101e-05
1.6101e-05
1.61011e-05
1.61012e-05
1.61011e-05
1.61011e-05
1.61011e-05
1.61011e-05
1.61011e-05
1.61011e-05
1.61011e-05
1.61011e-05
1.61011e-05
1.61011e-05
1.61012e-05
1.61012e-05
1.61013e-05
1.61013e-05
1.61012e-05
1.61009e-05
1.60999e-05
1.60983e-05
1.60953e-05
1.60934e-05
1.60979e-05
1.60994e-05
1.60997e-05
1.60998e-05
1.60997e-05
1.60997e-05
1.60996e-05
1.60995e-05
1.60994e-05
1.60993e-05
1.60993e-05
1.60993e-05
1.60993e-05
1.60993e-05
1.60993e-05
1.60993e-05
1.60993e-05
1.60994e-05
1.60995e-05
1.60996e-05
1.60998e-05
1.60999e-05
1.61e-05
1.61e-05
1.61001e-05
1.61002e-05
1.61002e-05
1.61003e-05
1.61003e-05
1.61003e-05
1.61004e-05
1.61004e-05
1.61004e-05
1.61004e-05
1.61005e-05
1.61005e-05
1.61005e-05
1.61006e-05
1.61005e-05
1.61004e-05
1.60997e-05
1.60973e-05
1.60989e-05
1.60993e-05
1.60993e-05
1.60992e-05
1.60991e-05
1.60991e-05
1.60991e-05
1.60991e-05
1.60991e-05
1.60992e-05
1.60992e-05
1.60993e-05
1.60994e-05
1.60996e-05
1.60997e-05
1.60999e-05
1.61001e-05
1.61003e-05
1.61005e-05
1.61007e-05
1.6101e-05
1.61012e-05
1.61014e-05
1.61015e-05
1.61017e-05
1.61019e-05
1.6102e-05
1.61022e-05
1.61024e-05
1.61025e-05
1.61026e-05
1.61028e-05
1.61029e-05
1.6103e-05
1.61031e-05
1.61032e-05
1.61033e-05
1.61034e-05
1.61034e-05
1.61037e-05
1.60967e-05
1.60984e-05
1.60986e-05
1.60985e-05
1.60983e-05
1.60982e-05
1.60981e-05
1.6098e-05
1.6098e-05
1.6098e-05
1.60981e-05
1.60982e-05
1.60983e-05
1.60984e-05
1.60985e-05
1.60986e-05
1.60988e-05
1.60989e-05
1.60991e-05
1.60993e-05
1.60995e-05
1.60998e-05
1.61e-05
1.61002e-05
1.61004e-05
1.61006e-05
1.61008e-05
1.6101e-05
1.61012e-05
1.61014e-05
1.61016e-05
1.61018e-05
1.61019e-05
1.61021e-05
1.61023e-05
1.61025e-05
1.61027e-05
1.61029e-05
1.61031e-05
1.61033e-05
1.61036e-05
1.60964e-05
1.60979e-05
1.6098e-05
1.60978e-05
1.60975e-05
1.60973e-05
1.60972e-05
1.60972e-05
1.60972e-05
1.60972e-05
1.60973e-05
1.60974e-05
1.60975e-05
1.60976e-05
1.60977e-05
1.60979e-05
1.6098e-05
1.60982e-05
1.60983e-05
1.60985e-05
1.60987e-05
1.60989e-05
1.60991e-05
1.60992e-05
1.60994e-05
1.60995e-05
1.60997e-05
1.60999e-05
1.61e-05
1.61001e-05
1.61003e-05
1.61004e-05
1.61006e-05
1.61007e-05
1.61009e-05
1.6101e-05
1.61012e-05
1.61013e-05
1.61015e-05
1.61017e-05
1.61019e-05
1.60962e-05
1.60974e-05
1.60973e-05
1.6097e-05
1.60967e-05
1.60965e-05
1.60965e-05
1.60965e-05
1.60965e-05
1.60965e-05
1.60966e-05
1.60967e-05
1.60969e-05
1.6097e-05
1.60971e-05
1.60973e-05
1.60974e-05
1.60976e-05
1.60977e-05
1.60979e-05
1.60981e-05
1.60983e-05
1.60984e-05
1.60986e-05
1.60987e-05
1.60989e-05
1.6099e-05
1.60992e-05
1.60993e-05
1.60994e-05
1.60996e-05
1.60997e-05
1.60998e-05
1.60999e-05
1.61e-05
1.61002e-05
1.61003e-05
1.61004e-05
1.61005e-05
1.61007e-05
1.61008e-05
1.60959e-05
1.60968e-05
1.60966e-05
1.60962e-05
1.6096e-05
1.60958e-05
1.60958e-05
1.60958e-05
1.60959e-05
1.6096e-05
1.60961e-05
1.60962e-05
1.60963e-05
1.60965e-05
1.60966e-05
1.60968e-05
1.60969e-05
1.60971e-05
1.60973e-05
1.60975e-05
1.60976e-05
1.60978e-05
1.6098e-05
1.60981e-05
1.60983e-05
1.60984e-05
1.60986e-05
1.60987e-05
1.60988e-05
1.6099e-05
1.60991e-05
1.60992e-05
1.60993e-05
1.60994e-05
1.60995e-05
1.60997e-05
1.60998e-05
1.60999e-05
1.61e-05
1.61001e-05
1.61002e-05
1.60955e-05
1.60961e-05
1.60959e-05
1.60955e-05
1.60953e-05
1.60952e-05
1.60952e-05
1.60952e-05
1.60953e-05
1.60955e-05
1.60956e-05
1.60957e-05
1.60959e-05
1.60961e-05
1.60962e-05
1.60964e-05
1.60966e-05
1.60967e-05
1.60969e-05
1.60971e-05
1.60973e-05
1.60974e-05
1.60976e-05
1.60978e-05
1.60979e-05
1.60981e-05
1.60982e-05
1.60984e-05
1.60985e-05
1.60986e-05
1.60987e-05
1.60989e-05
1.6099e-05
1.60991e-05
1.60992e-05
1.60993e-05
1.60994e-05
1.60995e-05
1.60996e-05
1.60998e-05
1.60998e-05
1.60951e-05
1.60955e-05
1.60951e-05
1.60948e-05
1.60947e-05
1.60946e-05
1.60946e-05
1.60947e-05
1.60948e-05
1.6095e-05
1.60952e-05
1.60953e-05
1.60955e-05
1.60957e-05
1.60959e-05
1.6096e-05
1.60962e-05
1.60964e-05
1.60966e-05
1.60968e-05
1.6097e-05
1.60972e-05
1.60973e-05
1.60975e-05
1.60977e-05
1.60978e-05
1.6098e-05
1.60981e-05
1.60982e-05
1.60984e-05
1.60985e-05
1.60986e-05
1.60988e-05
1.60989e-05
1.6099e-05
1.60991e-05
1.60992e-05
1.60993e-05
1.60994e-05
1.60996e-05
1.60996e-05
1.60946e-05
1.60948e-05
1.60944e-05
1.60942e-05
1.60941e-05
1.6094e-05
1.60941e-05
1.60942e-05
1.60944e-05
1.60946e-05
1.60948e-05
1.60949e-05
1.60951e-05
1.60953e-05
1.60955e-05
1.60957e-05
1.60959e-05
1.60961e-05
1.60963e-05
1.60965e-05
1.60967e-05
1.60969e-05
1.60971e-05
1.60973e-05
1.60974e-05
1.60976e-05
1.60978e-05
1.60979e-05
1.60981e-05
1.60982e-05
1.60983e-05
1.60985e-05
1.60986e-05
1.60987e-05
1.60988e-05
1.60989e-05
1.60991e-05
1.60992e-05
1.60993e-05
1.60994e-05
1.60994e-05
1.6094e-05
1.60941e-05
1.60938e-05
1.60935e-05
1.60935e-05
1.60935e-05
1.60936e-05
1.60938e-05
1.6094e-05
1.60942e-05
1.60944e-05
1.60946e-05
1.60948e-05
1.6095e-05
1.60952e-05
1.60954e-05
1.60957e-05
1.60959e-05
1.60961e-05
1.60963e-05
1.60965e-05
1.60967e-05
1.60969e-05
1.60971e-05
1.60972e-05
1.60974e-05
1.60976e-05
1.60977e-05
1.60979e-05
1.6098e-05
1.60982e-05
1.60983e-05
1.60984e-05
1.60986e-05
1.60987e-05
1.60988e-05
1.60989e-05
1.6099e-05
1.60991e-05
1.60993e-05
1.60993e-05
1.60934e-05
1.60934e-05
1.60931e-05
1.60929e-05
1.60929e-05
1.6093e-05
1.60931e-05
1.60933e-05
1.60935e-05
1.60938e-05
1.6094e-05
1.60942e-05
1.60945e-05
1.60947e-05
1.60949e-05
1.60952e-05
1.60954e-05
1.60956e-05
1.60958e-05
1.6096e-05
1.60963e-05
1.60965e-05
1.60967e-05
1.60969e-05
1.6097e-05
1.60972e-05
1.60974e-05
1.60976e-05
1.60977e-05
1.60979e-05
1.6098e-05
1.60981e-05
1.60983e-05
1.60984e-05
1.60985e-05
1.60987e-05
1.60988e-05
1.60989e-05
1.6099e-05
1.60992e-05
1.60992e-05
1.60927e-05
1.60927e-05
1.60924e-05
1.60923e-05
1.60923e-05
1.60925e-05
1.60926e-05
1.60929e-05
1.60931e-05
1.60933e-05
1.60936e-05
1.60939e-05
1.60941e-05
1.60944e-05
1.60946e-05
1.60948e-05
1.60951e-05
1.60953e-05
1.60955e-05
1.60958e-05
1.6096e-05
1.60962e-05
1.60964e-05
1.60966e-05
1.60968e-05
1.6097e-05
1.60972e-05
1.60974e-05
1.60975e-05
1.60977e-05
1.60978e-05
1.6098e-05
1.60981e-05
1.60982e-05
1.60984e-05
1.60985e-05
1.60986e-05
1.60988e-05
1.60989e-05
1.6099e-05
1.60991e-05
1.6092e-05
1.6092e-05
1.60917e-05
1.60917e-05
1.60918e-05
1.60919e-05
1.60921e-05
1.60924e-05
1.60926e-05
1.60929e-05
1.60932e-05
1.60934e-05
1.60937e-05
1.6094e-05
1.60942e-05
1.60945e-05
1.60947e-05
1.6095e-05
1.60952e-05
1.60955e-05
1.60957e-05
1.60959e-05
1.60961e-05
1.60964e-05
1.60966e-05
1.60967e-05
1.60969e-05
1.60971e-05
1.60973e-05
1.60974e-05
1.60976e-05
1.60977e-05
1.60979e-05
1.6098e-05
1.60982e-05
1.60983e-05
1.60984e-05
1.60985e-05
1.60987e-05
1.60988e-05
1.60989e-05
1.60913e-05
1.60912e-05
1.60911e-05
1.6091e-05
1.60912e-05
1.60913e-05
1.60916e-05
1.60918e-05
1.60921e-05
1.60924e-05
1.60927e-05
1.6093e-05
1.60933e-05
1.60935e-05
1.60938e-05
1.60941e-05
1.60943e-05
1.60946e-05
1.60948e-05
1.60951e-05
1.60953e-05
1.60956e-05
1.60958e-05
1.6096e-05
1.60962e-05
1.60964e-05
1.60966e-05
1.60968e-05
1.6097e-05
1.60971e-05
1.60973e-05
1.60974e-05
1.60976e-05
1.60977e-05
1.60979e-05
1.6098e-05
1.60981e-05
1.60983e-05
1.60984e-05
1.60985e-05
1.60986e-05
1.60906e-05
1.60905e-05
1.60904e-05
1.60904e-05
1.60905e-05
1.60907e-05
1.6091e-05
1.60913e-05
1.60916e-05
1.60919e-05
1.60922e-05
1.60924e-05
1.60927e-05
1.6093e-05
1.60933e-05
1.60936e-05
1.60939e-05
1.60941e-05
1.60944e-05
1.60946e-05
1.60949e-05
1.60951e-05
1.60954e-05
1.60956e-05
1.60958e-05
1.6096e-05
1.60962e-05
1.60964e-05
1.60966e-05
1.60967e-05
1.60969e-05
1.6097e-05
1.60972e-05
1.60973e-05
1.60975e-05
1.60976e-05
1.60977e-05
1.60979e-05
1.6098e-05
1.60981e-05
1.60982e-05
1.60898e-05
1.60897e-05
1.60896e-05
1.60897e-05
1.60899e-05
1.60901e-05
1.60904e-05
1.60906e-05
1.60909e-05
1.60912e-05
1.60915e-05
1.60918e-05
1.60921e-05
1.60924e-05
1.60927e-05
1.6093e-05
1.60933e-05
1.60936e-05
1.60938e-05
1.60941e-05
1.60944e-05
1.60946e-05
1.60948e-05
1.60951e-05
1.60953e-05
1.60955e-05
1.60957e-05
1.60959e-05
1.6096e-05
1.60962e-05
1.60964e-05
1.60965e-05
1.60967e-05
1.60968e-05
1.6097e-05
1.60971e-05
1.60972e-05
1.60974e-05
1.60975e-05
1.60976e-05
1.60977e-05
1.6089e-05
1.60889e-05
1.60889e-05
1.6089e-05
1.60891e-05
1.60894e-05
1.60896e-05
1.60899e-05
1.60902e-05
1.60905e-05
1.60908e-05
1.60911e-05
1.60914e-05
1.60917e-05
1.6092e-05
1.60923e-05
1.60926e-05
1.60929e-05
1.60932e-05
1.60934e-05
1.60937e-05
1.6094e-05
1.60942e-05
1.60944e-05
1.60946e-05
1.60949e-05
1.60951e-05
1.60952e-05
1.60954e-05
1.60956e-05
1.60958e-05
1.60959e-05
1.60961e-05
1.60962e-05
1.60963e-05
1.60965e-05
1.60966e-05
1.60967e-05
1.60968e-05
1.6097e-05
1.6097e-05
1.60881e-05
1.60881e-05
1.60881e-05
1.60882e-05
1.60884e-05
1.60886e-05
1.60888e-05
1.60891e-05
1.60894e-05
1.60897e-05
1.609e-05
1.60903e-05
1.60906e-05
1.60909e-05
1.60912e-05
1.60915e-05
1.60918e-05
1.60921e-05
1.60924e-05
1.60927e-05
1.60929e-05
1.60932e-05
1.60934e-05
1.60937e-05
1.60939e-05
1.60941e-05
1.60943e-05
1.60945e-05
1.60947e-05
1.60948e-05
1.6095e-05
1.60951e-05
1.60953e-05
1.60954e-05
1.60956e-05
1.60957e-05
1.60958e-05
1.60959e-05
1.6096e-05
1.60962e-05
1.60962e-05
1.60872e-05
1.60872e-05
1.60872e-05
1.60873e-05
1.60875e-05
1.60877e-05
1.6088e-05
1.60882e-05
1.60885e-05
1.60888e-05
1.60891e-05
1.60894e-05
1.60897e-05
1.609e-05
1.60903e-05
1.60906e-05
1.60909e-05
1.60912e-05
1.60915e-05
1.60917e-05
1.6092e-05
1.60923e-05
1.60925e-05
1.60928e-05
1.6093e-05
1.60932e-05
1.60934e-05
1.60936e-05
1.60938e-05
1.60939e-05
1.60941e-05
1.60942e-05
1.60944e-05
1.60945e-05
1.60947e-05
1.60948e-05
1.60949e-05
1.6095e-05
1.60951e-05
1.60952e-05
1.60953e-05
1.60863e-05
1.60863e-05
1.60863e-05
1.60864e-05
1.60866e-05
1.60867e-05
1.6087e-05
1.60872e-05
1.60875e-05
1.60877e-05
1.6088e-05
1.60883e-05
1.60886e-05
1.60889e-05
1.60892e-05
1.60895e-05
1.60898e-05
1.60901e-05
1.60904e-05
1.60907e-05
1.6091e-05
1.60912e-05
1.60915e-05
1.60917e-05
1.60919e-05
1.60921e-05
1.60923e-05
1.60925e-05
1.60927e-05
1.60929e-05
1.6093e-05
1.60932e-05
1.60933e-05
1.60935e-05
1.60936e-05
1.60937e-05
1.60938e-05
1.60939e-05
1.6094e-05
1.60941e-05
1.60942e-05
1.60853e-05
1.60853e-05
1.60853e-05
1.60854e-05
1.60855e-05
1.60857e-05
1.60859e-05
1.60861e-05
1.60863e-05
1.60866e-05
1.60869e-05
1.60871e-05
1.60874e-05
1.60877e-05
1.6088e-05
1.60884e-05
1.60886e-05
1.60889e-05
1.60892e-05
1.60895e-05
1.60898e-05
1.609e-05
1.60903e-05
1.60905e-05
1.60907e-05
1.60909e-05
1.60911e-05
1.60913e-05
1.60915e-05
1.60917e-05
1.60918e-05
1.6092e-05
1.60921e-05
1.60922e-05
1.60923e-05
1.60925e-05
1.60926e-05
1.60927e-05
1.60928e-05
1.60929e-05
1.60929e-05
1.60842e-05
1.60842e-05
1.60842e-05
1.60843e-05
1.60844e-05
1.60845e-05
1.60847e-05
1.60848e-05
1.60851e-05
1.60853e-05
1.60856e-05
1.60858e-05
1.60861e-05
1.60864e-05
1.60867e-05
1.6087e-05
1.60873e-05
1.60876e-05
1.60879e-05
1.60882e-05
1.60884e-05
1.60887e-05
1.60889e-05
1.60892e-05
1.60894e-05
1.60896e-05
1.60898e-05
1.60899e-05
1.60901e-05
1.60903e-05
1.60904e-05
1.60906e-05
1.60907e-05
1.60908e-05
1.60909e-05
1.6091e-05
1.60911e-05
1.60912e-05
1.60913e-05
1.60914e-05
1.60915e-05
1.60831e-05
1.60831e-05
1.60831e-05
1.60831e-05
1.60831e-05
1.60832e-05
1.60833e-05
1.60835e-05
1.60837e-05
1.60839e-05
1.60841e-05
1.60844e-05
1.60847e-05
1.6085e-05
1.60853e-05
1.60855e-05
1.60858e-05
1.60861e-05
1.60864e-05
1.60867e-05
1.60869e-05
1.60872e-05
1.60874e-05
1.60876e-05
1.60878e-05
1.6088e-05
1.60882e-05
1.60884e-05
1.60885e-05
1.60887e-05
1.60888e-05
1.6089e-05
1.60891e-05
1.60892e-05
1.60893e-05
1.60894e-05
1.60895e-05
1.60896e-05
1.60897e-05
1.60897e-05
1.60898e-05
1.60819e-05
1.60819e-05
1.60818e-05
1.60818e-05
1.60818e-05
1.60818e-05
1.60819e-05
1.6082e-05
1.60822e-05
1.60824e-05
1.60826e-05
1.60828e-05
1.60831e-05
1.60834e-05
1.60836e-05
1.60839e-05
1.60842e-05
1.60844e-05
1.60847e-05
1.6085e-05
1.60852e-05
1.60854e-05
1.60857e-05
1.60859e-05
1.60861e-05
1.60863e-05
1.60864e-05
1.60866e-05
1.60868e-05
1.60869e-05
1.6087e-05
1.60872e-05
1.60873e-05
1.60874e-05
1.60875e-05
1.60876e-05
1.60877e-05
1.60877e-05
1.60878e-05
1.60879e-05
1.60879e-05
1.60806e-05
1.60806e-05
1.60805e-05
1.60804e-05
1.60804e-05
1.60804e-05
1.60804e-05
1.60805e-05
1.60806e-05
1.60808e-05
1.60809e-05
1.60811e-05
1.60814e-05
1.60816e-05
1.60818e-05
1.60821e-05
1.60823e-05
1.60826e-05
1.60828e-05
1.60831e-05
1.60833e-05
1.60835e-05
1.60837e-05
1.60839e-05
1.60841e-05
1.60843e-05
1.60844e-05
1.60846e-05
1.60847e-05
1.60849e-05
1.6085e-05
1.60851e-05
1.60852e-05
1.60853e-05
1.60854e-05
1.60854e-05
1.60855e-05
1.60856e-05
1.60856e-05
1.60857e-05
1.60857e-05
1.60792e-05
1.60792e-05
1.6079e-05
1.60789e-05
1.60788e-05
1.60788e-05
1.60788e-05
1.60788e-05
1.60789e-05
1.6079e-05
1.60791e-05
1.60793e-05
1.60795e-05
1.60797e-05
1.60799e-05
1.60801e-05
1.60803e-05
1.60805e-05
1.60807e-05
1.60809e-05
1.60811e-05
1.60813e-05
1.60815e-05
1.60817e-05
1.60818e-05
1.6082e-05
1.60821e-05
1.60823e-05
1.60824e-05
1.60825e-05
1.60826e-05
1.60827e-05
1.60828e-05
1.60829e-05
1.6083e-05
1.60831e-05
1.60831e-05
1.60832e-05
1.60832e-05
1.60833e-05
1.60833e-05
1.60778e-05
1.60777e-05
1.60775e-05
1.60773e-05
1.60772e-05
1.60771e-05
1.60771e-05
1.60771e-05
1.60771e-05
1.60772e-05
1.60772e-05
1.60773e-05
1.60774e-05
1.60776e-05
1.60777e-05
1.60779e-05
1.6078e-05
1.60782e-05
1.60784e-05
1.60785e-05
1.60787e-05
1.60789e-05
1.6079e-05
1.60792e-05
1.60793e-05
1.60794e-05
1.60796e-05
1.60797e-05
1.60798e-05
1.60799e-05
1.60799e-05
1.608e-05
1.60801e-05
1.60801e-05
1.60802e-05
1.60802e-05
1.60802e-05
1.60802e-05
1.60802e-05
1.60802e-05
1.60802e-05
1.60762e-05
1.60761e-05
1.60759e-05
1.60757e-05
1.60756e-05
1.60754e-05
1.60753e-05
1.60753e-05
1.60753e-05
1.60752e-05
1.60752e-05
1.60753e-05
1.60753e-05
1.60753e-05
1.60754e-05
1.60755e-05
1.60756e-05
1.60757e-05
1.60758e-05
1.60759e-05
1.6076e-05
1.60761e-05
1.60761e-05
1.60762e-05
1.60763e-05
1.60764e-05
1.60765e-05
1.60766e-05
1.60766e-05
1.60767e-05
1.60768e-05
1.60768e-05
1.60769e-05
1.60769e-05
1.6077e-05
1.6077e-05
1.60771e-05
1.60771e-05
1.60771e-05
1.60772e-05
1.60772e-05
1.60745e-05
1.60744e-05
1.60742e-05
1.6074e-05
1.60738e-05
1.60737e-05
1.60736e-05
1.60735e-05
1.60734e-05
1.60733e-05
1.60732e-05
1.60731e-05
1.60731e-05
1.6073e-05
1.6073e-05
1.6073e-05
1.60729e-05
1.60729e-05
1.60729e-05
1.60729e-05
1.6073e-05
1.6073e-05
1.6073e-05
1.60731e-05
1.60731e-05
1.60732e-05
1.60732e-05
1.60733e-05
1.60733e-05
1.60733e-05
1.60734e-05
1.60734e-05
1.60734e-05
1.60734e-05
1.60734e-05
1.60733e-05
1.60733e-05
1.60733e-05
1.60732e-05
1.60732e-05
1.60732e-05
1.60727e-05
1.60726e-05
1.60724e-05
1.60722e-05
1.60721e-05
1.6072e-05
1.60718e-05
1.60717e-05
1.60715e-05
1.60714e-05
1.60713e-05
1.60711e-05
1.60709e-05
1.60708e-05
1.60706e-05
1.60705e-05
1.60704e-05
1.60703e-05
1.60702e-05
1.60701e-05
1.607e-05
1.607e-05
1.60699e-05
1.60699e-05
1.60699e-05
1.607e-05
1.607e-05
1.607e-05
1.607e-05
1.60701e-05
1.60701e-05
1.60701e-05
1.60701e-05
1.60701e-05
1.60701e-05
1.60701e-05
1.60701e-05
1.60701e-05
1.60701e-05
1.60701e-05
1.60701e-05
1.60708e-05
1.60707e-05
1.60706e-05
1.60704e-05
1.60703e-05
1.60702e-05
1.60701e-05
1.607e-05
1.60699e-05
1.60697e-05
1.60695e-05
1.60692e-05
1.6069e-05
1.60688e-05
1.60687e-05
1.60687e-05
1.60687e-05
1.60688e-05
1.6069e-05
1.60691e-05
1.60692e-05
1.60693e-05
1.60694e-05
1.60695e-05
1.60696e-05
1.60697e-05
1.60698e-05
1.60699e-05
1.607e-05
1.60701e-05
1.60701e-05
1.60702e-05
1.60702e-05
1.60702e-05
1.60703e-05
1.60703e-05
1.60703e-05
1.60703e-05
1.60704e-05
1.60704e-05
1.60704e-05
1.60687e-05
1.60687e-05
1.60686e-05
1.60686e-05
1.60686e-05
1.60685e-05
1.60685e-05
1.60684e-05
1.60684e-05
1.60683e-05
1.60682e-05
1.6068e-05
1.60679e-05
1.6068e-05
1.60682e-05
1.60685e-05
1.60689e-05
1.60694e-05
1.60699e-05
1.60705e-05
1.60711e-05
1.60718e-05
1.60725e-05
1.60733e-05
1.6074e-05
1.60748e-05
1.60756e-05
1.60764e-05
1.60771e-05
1.60778e-05
1.60784e-05
1.6079e-05
1.60795e-05
1.608e-05
1.60804e-05
1.60809e-05
1.60813e-05
1.60816e-05
1.6082e-05
1.60823e-05
1.60825e-05
0.0045763
0.00628003
0.00707816
0.00750172
0.00772941
0.0078107
0.00775786
0.00757851
0.00726841
0.00683845
0.00629279
0.00563838
0.00487882
0.00401373
0.00308025
0.00214037
0.0012296
0.000535726
7.27342e-05
0.000140239
1.41421e-05
1.00582e-05
1.11201e-05
1.52501e-05
1.92733e-05
1.84868e-05
1.65118e-05
1.56679e-05
1.57212e-05
1.59972e-05
1.61558e-05
1.61693e-05
1.61265e-05
1.60951e-05
1.60909e-05
1.61023e-05
1.61158e-05
1.61251e-05
1.61299e-05
1.61323e-05
1.61336e-05
1.61344e-05
1.61345e-05
1.61339e-05
1.61325e-05
1.61306e-05
1.61288e-05
1.61271e-05
1.61258e-05
1.61248e-05
1.61241e-05
1.61237e-05
1.61235e-05
1.61234e-05
1.61235e-05
1.61237e-05
1.6124e-05
1.61243e-05
1.61247e-05
1.61253e-05
1.61258e-05
1.61265e-05
1.61271e-05
1.61279e-05
1.61287e-05
1.61295e-05
1.61304e-05
1.61313e-05
1.61322e-05
1.61332e-05
1.61341e-05
1.61352e-05
1.61359e-05
1.61376e-05
0.00658198
0.00845437
0.00934976
0.0097867
0.0100219
0.0101245
0.0101056
0.0099725
0.00972799
0.0093743
0.00891074
0.00833567
0.00764597
0.00683717
0.00590776
0.00487257
0.00373593
0.00258783
0.00150588
0.000673663
0.00013675
0.000184951
2.4595e-05
1.05601e-05
1.00854e-05
1.29831e-05
1.68823e-05
1.82823e-05
1.72278e-05
1.60931e-05
1.5747e-05
1.58415e-05
1.60369e-05
1.61534e-05
1.61674e-05
1.61358e-05
1.61096e-05
1.61051e-05
1.61149e-05
1.61271e-05
1.61349e-05
1.61375e-05
1.6137e-05
1.61353e-05
1.61336e-05
1.61318e-05
1.61301e-05
1.61284e-05
1.61269e-05
1.61257e-05
1.61247e-05
1.61241e-05
1.61238e-05
1.61237e-05
1.61237e-05
1.61239e-05
1.61241e-05
1.61245e-05
1.61249e-05
1.61255e-05
1.6126e-05
1.61266e-05
1.61273e-05
1.61281e-05
1.61289e-05
1.61297e-05
1.61306e-05
1.61315e-05
1.61324e-05
1.61334e-05
1.61344e-05
1.61354e-05
1.61362e-05
1.61379e-05
0.00802924
0.00985195
0.0108247
0.0114089
0.0117736
0.0119731
0.0120374
0.0119938
0.0118552
0.0116219
0.011288
0.010848
0.010297
0.00963008
0.00883884
0.00791942
0.00685685
0.00567029
0.00437929
0.00305468
0.00181159
0.000853598
0.000217599
2.70551e-05
1.33223e-05
1.00019e-05
1.00043e-05
1.16447e-05
1.58231e-05
1.84381e-05
1.81018e-05
1.66609e-05
1.58743e-05
1.57131e-05
1.58836e-05
1.60906e-05
1.61877e-05
1.61856e-05
1.61492e-05
1.61235e-05
1.61187e-05
1.61261e-05
1.61347e-05
1.61387e-05
1.61382e-05
1.61352e-05
1.61319e-05
1.61294e-05
1.61277e-05
1.61266e-05
1.61257e-05
1.6125e-05
1.61245e-05
1.61242e-05
1.61241e-05
1.61241e-05
1.61243e-05
1.61247e-05
1.61252e-05
1.61257e-05
1.61262e-05
1.61268e-05
1.61275e-05
1.61282e-05
1.6129e-05
1.61299e-05
1.61308e-05
1.61317e-05
1.61326e-05
1.61336e-05
1.61346e-05
1.61357e-05
1.61365e-05
1.61383e-05
0.0100991
0.0113506
0.0117735
0.0123896
0.0128706
0.0131637
0.0133206
0.0133972
0.0134044
0.0133332
0.0131692
0.0129081
0.0125471
0.0120805
0.0114972
0.0107881
0.0099332
0.00893248
0.0077795
0.00647351
0.00504581
0.00357998
0.00219755
0.00112932
0.000406211
1.00045e-05
0.000120239
1.028e-05
1.00486e-05
1.01841e-05
1.3499e-05
1.80455e-05
1.90572e-05
1.75792e-05
1.62908e-05
1.57159e-05
1.57026e-05
1.59186e-05
1.61104e-05
1.61918e-05
1.61884e-05
1.61561e-05
1.61318e-05
1.61249e-05
1.61289e-05
1.61344e-05
1.61364e-05
1.61348e-05
1.61315e-05
1.61284e-05
1.61263e-05
1.61253e-05
1.61249e-05
1.61247e-05
1.61247e-05
1.61247e-05
1.61248e-05
1.6125e-05
1.61254e-05
1.61259e-05
1.61265e-05
1.61271e-05
1.61277e-05
1.61285e-05
1.61292e-05
1.61301e-05
1.6131e-05
1.61319e-05
1.61329e-05
1.61339e-05
1.61349e-05
1.6136e-05
1.61368e-05
1.61387e-05
0.0115081
0.0126789
0.0133251
0.0136791
0.0138721
0.0139465
0.014022
0.0141541
0.0142762
0.0143442
0.0143326
0.0142568
0.0141153
0.0138931
0.0135686
0.0131293
0.0125517
0.0118343
0.0109692
0.00993516
0.0087219
0.00733134
0.00580041
0.00421053
0.00271111
0.00145396
0.000614965
6.52609e-05
1.00026e-05
1.07972e-05
1.06262e-05
1.04811e-05
1.07286e-05
1.4973e-05
1.8619e-05
1.86052e-05
1.7282e-05
1.62051e-05
1.57647e-05
1.57792e-05
1.59629e-05
1.61246e-05
1.61949e-05
1.61909e-05
1.61588e-05
1.61326e-05
1.61228e-05
1.61245e-05
1.61293e-05
1.61319e-05
1.61315e-05
1.61292e-05
1.61268e-05
1.61253e-05
1.61247e-05
1.61248e-05
1.61251e-05
1.61255e-05
1.61259e-05
1.61263e-05
1.61268e-05
1.61274e-05
1.6128e-05
1.61287e-05
1.61295e-05
1.61303e-05
1.61312e-05
1.61321e-05
1.61331e-05
1.61341e-05
1.61351e-05
1.61363e-05
1.61371e-05
1.6139e-05
0.0122086
0.0130488
0.01375
0.0142805
0.0146448
0.0148473
0.0149352
0.0149666
0.0149633
0.0149221
0.0148435
0.0148461
0.0148729
0.0148676
0.0147828
0.0146184
0.0143485
0.0139756
0.0134707
0.0128104
0.0119754
0.010947
0.00971531
0.00828031
0.00668454
0.0050037
0.0033805
0.00195307
0.000924556
0.000235137
3.56367e-05
1.95617e-05
1.00241e-05
1.00232e-05
1.00567e-05
1.17817e-05
1.56091e-05
1.83853e-05
1.82378e-05
1.71091e-05
1.62058e-05
1.58333e-05
1.58447e-05
1.60088e-05
1.61526e-05
1.62112e-05
1.62001e-05
1.61626e-05
1.61318e-05
1.61186e-05
1.61188e-05
1.6124e-05
1.61282e-05
1.61294e-05
1.61285e-05
1.61269e-05
1.61258e-05
1.61254e-05
1.61257e-05
1.61263e-05
1.61271e-05
1.61278e-05
1.61284e-05
1.61291e-05
1.61298e-05
1.61305e-05
1.61314e-05
1.61324e-05
1.61333e-05
1.61344e-05
1.61354e-05
1.61366e-05
1.61374e-05
1.61394e-05
0.011632
0.0119848
0.0124128
0.0129267
0.0134879
0.0140368
0.0145127
0.0148899
0.0151635
0.0153369
0.0154096
0.0154223
0.0153974
0.0153389
0.0152086
0.0151608
0.0151289
0.0150653
0.0149103
0.0146417
0.0142391
0.013676
0.0129243
0.0119572
0.0107611
0.00933485
0.00771465
0.00597408
0.00422934
0.00263228
0.00140475
0.000591504
2.52184e-05
0.000210931
1.08427e-05
1.00039e-05
1.01565e-05
1.07793e-05
1.268e-05
1.62028e-05
1.83047e-05
1.80036e-05
1.69559e-05
1.61171e-05
1.57779e-05
1.58169e-05
1.59943e-05
1.61472e-05
1.62124e-05
1.62044e-05
1.61672e-05
1.61342e-05
1.61179e-05
1.61161e-05
1.6121e-05
1.61262e-05
1.6129e-05
1.61293e-05
1.61284e-05
1.61274e-05
1.61271e-05
1.61275e-05
1.61283e-05
1.61292e-05
1.61301e-05
1.6131e-05
1.61318e-05
1.61327e-05
1.61336e-05
1.61347e-05
1.61357e-05