/*--------------------------------*- C++ -*----------------------------------*\
| =========                 |                                                 |
| \\      /  F ield         | OpenFOAM: The Open Source CFD Toolbox           |
|  \\    /   O peration     | Version:  2312                                  |
|   \\  /    A nd           | Website:  www.openfoam.com                      |
|    \\/     M anipulation  |                                                 |
\*---------------------------------------------------------------------------*/
FoamFile
{
    version     2.0;
    format      ascii;
    arch        "LSB;label=32;scalar=64";
    class       volScalarField;
    location    "200";
    object      turbulenceProperties:I;
}
// * * * * * * * * * * * * * * * * * * * * * * * * * * * * * * * * * * * * * //

dimensions      [0 0 0 0 0 0 0];

internalField   nonuniform List<scalar> 
11040
(
0.0269117
0.0343296
0.050558
0.0860781
0.193017
0.810289
1
0.701496
0.651831
0.761769
0.753743
0.633217
0.516159
0.429782
0.380559
0.352923
0.336483
0.325906
0.318734
0.313758
0.310492
0.309163
0.308537
0.30796
0.307684
0.307995
0.308948
0.310515
0.312737
0.315715
0.319625
0.324705
0.331283
0.339759
0.349799
0.351746
0.341212
0.371203
0.438411
0.526327
0.494006
0.0111129
0.00997682
0.0115744
0.0185782
0.0334683
0.067681
0.119332
0.188188
0.281406
0.370163
0.383387
0.355161
0.317377
0.281184
0.251454
0.228266
0.210152
0.195823
0.184556
0.175797
0.169322
0.165438
0.162997
0.16097
0.159557
0.159156
0.159828
0.161518
0.164265
0.168218
0.173628
0.180842
0.190334
0.202761
0.219028
0.239399
0.265454
0.302438
0.367545
0.426541
1
0.00910449
0.00651018
0.0053845
0.00431814
0.00371678
0.0110831
0.0227893
0.0383029
0.0576043
0.0794751
0.102666
0.12567
0.146887
0.164225
0.176125
0.182111
0.182794
0.179694
0.174738
0.169588
0.165469
0.162885
0.161657
0.161026
0.160777
0.16105
0.161896
0.16336
0.16554
0.168599
0.172751
0.17828
0.185553
0.195069
0.207577
0.223929
0.245911
0.274213
0.317907
0.350475
0.538932
0.00820308
0.00653363
0.00538791
0.00468492
0.00410294
0.00308519
0.00226071
0.00310424
0.00670002
0.0108577
0.015299
0.0202109
0.0265313
0.0351904
0.0464542
0.0599123
0.0747265
0.0898052
0.10403
0.116407
0.126406
0.133746
0.138579
0.141624
0.143698
0.145511
0.147483
0.149848
0.152771
0.156394
0.160865
0.166363
0.173127
0.181491
0.191952
0.205049
0.221861
0.242695
0.272841
0.296443
0.390096
0.00712807
0.0060114
0.0051237
0.00440341
0.00390837
0.00350288
0.00289091
0.00204566
0.00128416
0.00218403
0.000785949
0.000837875
0.000422121
0.000540258
0.00124029
0.0034742
0.00751438
0.0135287
0.0219548
0.0327659
0.0457445
0.0595781
0.0727146
0.0845992
0.0950469
0.104112
0.111986
0.118916
0.125204
0.131173
0.137151
0.143459
0.150415
0.158366
0.167712
0.178817
0.19232
0.208376
0.230043
0.249124
0.302287
0.00604498
0.0053682
0.00474335
0.00417519
0.00371914
0.00341033
0.00319317
0.00295305
0.00265355
0.00223966
0.00194198
0.00166749
0.00144475
0.00122936
0.000788149
0.000688955
2.05072e-05
0.00400405
0.00530717
0.000887132
0.00245215
0.00627607
0.0125255
0.0200626
0.0286203
0.037904
0.0476834
0.0577497
0.067953
0.0782
0.0884544
0.0987342
0.109112
0.119749
0.130863
0.142659
0.155514
0.169604
0.186658
0.202844
0.236504
0.00510812
0.00470068
0.00433894
0.00397291
0.00362017
0.00330771
0.00305687
0.00286344
0.00270113
0.00255472
0.00238058
0.00222211
0.00206404
0.00192628
0.00182193
0.00173333
0.00161999
0.00141255
0.00112747
1.72461e-05
0.00157387
0.000410436
0.00128111
0.00204582
0.00277001
0.00338238
0.00503928
0.00889219
0.014179
0.0207262
0.0284969
0.037459
0.0475864
0.0588859
0.0713439
0.0848906
0.0994856
0.115102
0.132339
0.14911
0.175701
0.00430277
0.00405391
0.00384933
0.00362258
0.00337754
0.00314102
0.00292891
0.00274338
0.00257726
0.0024241
0.0022756
0.00212762
0.00198089
0.00184528
0.00173268
0.00164732
0.00158765
0.00153414
0.00149833
0.00143187
0.00129613
0.00108905
0.000904683
0.0001609
0.000940427
0.00164427
0.000629564
0.0035875
0.00113663
0.00268009
0.00320085
0.00439449
0.00726948
0.0119887
0.0185572
0.0270459
0.0374769
0.0499436
0.0646743
0.0801897
0.103128
0.00362504
0.0034695
0.00335782
0.00323707
0.00309219
0.00293328
0.0027737
0.00262086
0.00247538
0.00233484
0.00219725
0.00206099
0.00192695
0.00180071
0.0016894
0.00159759
0.00152415
0.00146666
0.00142102
0.00139135
0.00136177
0.00130896
0.00124928
0.00116602
0.00108736
0.000970684
0.000836852
0.000579963
7.75825e-05
0.000745131
0.00107028
0.00175145
0.000490704
0.00111093
0.00174224
0.00285001
0.00511977
0.00927356
0.0157527
0.0236309
0.0378605
0.00305446
0.00295522
0.00289425
0.00283523
0.00275969
0.00266602
0.00256038
0.00244987
0.002338
0.00222551
0.00211244
0.00199865
0.00188517
0.00177577
0.00167545
0.00158809
0.00151475
0.00145428
0.00140445
0.00136441
0.00133318
0.0013078
0.00128305
0.00126586
0.00124407
0.00122226
0.00118654
0.00115798
0.0010731
0.000991903
0.000888349
0.000728468
0.000519985
0.000373181
0.000436955
0.000736764
0.00137729
0.00227308
0.00111151
0.00207273
0.00612352
0.00257527
0.00251088
0.0024775
0.00245217
0.0024201
0.00237511
0.00231661
0.00224718
0.00216984
0.00208671
0.00199974
0.00190981
0.0018181
0.00172742
0.00164141
0.00156337
0.00149507
0.00143655
0.00138697
0.00134508
0.00130991
0.00128075
0.00125594
0.00123481
0.00121773
0.00120552
0.00119694
0.00119181
0.00119053
0.00118473
0.00117468
0.00114858
0.00109904
0.00101096
0.000901519
0.000740605
0.000433805
0.000169569
0.000267286
0.00039812
0.0013444
0.00217237
0.00212991
0.00211163
0.00210319
0.00209444
0.00207924
0.0020542
0.00201863
0.00197325
0.00191955
0.00185925
0.00179384
0.00172468
0.001654
0.00158447
0.00151874
0.00145872
0.00140525
0.0013584
0.00131769
0.00128274
0.0012532
0.0012281
0.00120625
0.00118762
0.00117241
0.00116076
0.00115213
0.00114656
0.00114361
0.00114294
0.0011437
0.00114554
0.00114859
0.00114472
0.00112917
0.00108356
0.000974344
0.000812184
0.00063337
0.000226167
0.00183337
0.00180498
0.00179515
0.00179482
0.00179747
0.00179847
0.00179422
0.00178251
0.00176242
0.00173391
0.00169792
0.00165541
0.00160772
0.00155662
0.00150408
0.00145215
0.0014026
0.00135659
0.00131473
0.00127709
0.00124387
0.00121542
0.00119119
0.00117012
0.00115189
0.00113641
0.00112357
0.00111305
0.00110448
0.00109758
0.00109209
0.00108781
0.00108455
0.00108281
0.00108242
0.00108343
0.0010852
0.00108706
0.00107373
0.0010606
0.000974968
0.00154772
0.0015285
0.00152346
0.00152672
0.00153416
0.00154262
0.00154922
0.00155168
0.00154844
0.00153861
0.00152213
0.00149931
0.0014708
0.00143784
0.00140184
0.0013643
0.00132664
0.00129002
0.00125526
0.00122277
0.0011931
0.00116704
0.0011445
0.00112467
0.00110725
0.00109209
0.00107902
0.00106779
0.00105809
0.00104965
0.00104215
0.00103534
0.00102894
0.00102274
0.00101661
0.00101066
0.0010049
0.00100016
0.000996598
0.00099263
0.00099298
0.00130661
0.00129355
0.0012913
0.00129589
0.00130479
0.00131593
0.00132724
0.00133686
0.0013433
0.0013454
0.00134255
0.0013345
0.00132133
0.00130355
0.00128205
0.00125784
0.00123195
0.00120532
0.00117877
0.00115283
0.00112817
0.00110581
0.00108594
0.00106801
0.00105188
0.00103745
0.00102455
0.001013
0.00100259
0.000993111
0.000984335
0.000976042
0.000968021
0.00096006
0.000951955
0.000943552
0.000934689
0.000925211
0.000915336
0.000903545
0.000896005
0.00110305
0.00109422
0.00109357
0.00109833
0.00110703
0.00111838
0.00113088
0.00114318
0.00115408
0.00116253
0.00116778
0.00116934
0.00116693
0.00116058
0.0011506
0.00113756
0.00112212
0.00110493
0.00108664
0.00106774
0.00104887
0.00103104
0.00101461
0.000999291
0.000985087
0.000971959
0.00095981
0.000948528
0.000937972
0.000928001
0.000918464
0.000909203
0.000900073
0.000890918
0.000881593
0.000871984
0.000861963
0.000851398
0.000840194
0.000827567
0.0008165
0.000932202
0.000926226
0.000926416
0.000930813
0.00093865
0.000949095
0.000961084
0.000973623
0.000985841
0.000996909
0.00100615
0.00101305
0.00101721
0.00101841
0.0010166
0.00101195
0.00100476
0.000995473
0.000984473
0.000972126
0.000958906
0.000945703
0.000932951
0.000920536
0.000908581
0.000897122
0.000886131
0.00087555
0.000865319
0.000855361
0.000845589
0.000835907
0.000826232
0.000816464
0.00080651
0.000796313
0.000785807
0.000774923
0.000763589
0.000751455
0.000740293
0.000793317
0.000789167
0.000789785
0.000793709
0.000800591
0.000809872
0.000820748
0.00083248
0.000844425
0.000855964
0.000866552
0.000875747
0.00088317
0.000888535
0.000891662
0.000892494
0.000891075
0.00088756
0.000882192
0.000875179
0.000866801
0.000857734
0.000848397
0.0008388
0.000829133
0.000819486
0.000809891
0.000800348
0.000790851
0.000781376
0.000771888
0.000762341
0.000752704
0.000742922
0.000732945
0.000722763
0.000712364
0.000701708
0.000690774
0.00067941
0.000668695
0.00068333
0.000680352
0.000681172
0.00068464
0.000690651
0.000698819
0.000708504
0.000719124
0.000730186
0.000741215
0.000751776
0.000761509
0.00077009
0.000777238
0.000782737
0.000786446
0.000788306
0.000788324
0.000786577
0.00078319
0.000778326
0.000772441
0.000765877
0.000758707
0.000751134
0.000743271
0.000735185
0.000726915
0.00071849
0.00070992
0.000701209
0.000692347
0.000683336
0.000674155
0.000664782
0.000655233
0.000645535
0.000635653
0.000625585
0.000615305
0.00060542
0.000595706
0.000593485
0.000594324
0.000597317
0.000602511
0.000609625
0.000618127
0.000627539
0.000637468
0.00064754
0.000657407
0.000666781
0.000675398
0.000683015
0.000689427
0.000694478
0.000698061
0.000700118
0.000700635
0.00069963
0.000697171
0.000693575
0.000689106
0.000683853
0.000678005
0.000671684
0.000664967
0.000657921
0.000650594
0.000643027
0.000635244
0.000627259
0.000619101
0.00061077
0.000602264
0.000593612
0.000584868
0.000575996
0.000567001
0.000557901
0.000549125
0.000524105
0.000522368
0.000523133
0.000525691
0.000530175
0.000536365
0.00054381
0.000552107
0.000560933
0.000569981
0.000578967
0.000587655
0.000595829
0.000603281
0.000609832
0.000615331
0.000619659
0.000622734
0.000624502
0.000624934
0.000624032
0.000621987
0.000619001
0.000615177
0.000610682
0.000605625
0.000600089
0.000594148
0.000587864
0.000581284
0.000574453
0.000567395
0.000560156
0.000552747
0.000545178
0.000537488
0.000529742
0.000521903
0.00051399
0.000505994
0.000498424
0.000464508
0.000463096
0.000463764
0.00046595
0.000469831
0.000475228
0.000481748
0.000489047
0.000496849
0.000504898
0.000512956
0.000520825
0.000528328
0.00053529
0.000541557
0.000546995
0.000551492
0.000554958
0.000557329
0.000558553
0.000558601
0.000557584
0.000555647
0.000552882
0.000549433
0.000545402
0.000540866
0.000535897
0.000530561
0.000524912
0.000518998
0.000512852
0.000506526
0.000500038
0.000493405
0.000486664
0.000479891
0.000473043
0.000466153
0.000459148
0.00045276
0.000414135
0.000412949
0.000413514
0.000415386
0.000418757
0.000423479
0.000429202
0.000435628
0.000442518
0.000449654
0.000456832
0.000463886
0.000470663
0.000477018
0.000482819
0.000487947
0.000492304
0.000495803
0.000498377
0.000499968
0.000500535
0.000500144
0.000498905
0.000496894
0.000494231
0.000490999
0.000487269
0.000483114
0.000478595
0.00047377
0.000468687
0.000463381
0.000457902
0.000452274
0.000446516
0.000440664
0.000434792
0.000428856
0.000422901
0.000416779
0.000411492
0.000371027
0.000370005
0.000370475
0.000372086
0.000375032
0.00037918
0.00038422
0.000389888
0.000395976
0.000402294
0.000408665
0.000414946
0.000421007
0.000426723
0.000431981
0.000436681
0.000440735
0.000444065
0.000446609
0.000448309
0.000449123
0.000449093
0.000448305
0.000446822
0.000444738
0.000442125
0.000439048
0.000435573
0.000431759
0.000427658
0.00042331
0.000418761
0.000414048
0.0004092
0.000404236
0.000399188
0.000394129
0.000389013
0.000383893
0.000378557
0.000374254
0.000333749
0.000332854
0.000333241
0.000334638
0.000337227
0.000340888
0.000345343
0.000350357
0.000355746
0.000361342
0.000366992
0.000372569
0.000377962
0.000383063
0.000387776
0.000392013
0.0003957
0.000398768
0.000401161
0.000402827
0.000403725
0.000403886
0.000403377
0.000402251
0.00040059
0.000398453
0.000395899
0.000392983
0.000389757
0.000386265
0.000382554
0.000378653
0.000374608
0.000370441
0.000366172
0.00036183
0.000357479
0.000353078
0.000348687
0.000344038
0.00034058
0.000301232
0.000300438
0.000300757
0.00030198
0.000304271
0.000307518
0.000311473
0.000315923
0.000320705
0.000325669
0.00033068
0.000335627
0.000340412
0.000344943
0.000349135
0.000352915
0.000356218
0.000358984
0.000361167
0.000362717
0.000363602
0.000363845
0.000363506
0.00036263
0.000361283
0.000359517
0.000357379
0.000354916
0.000352177
0.0003492
0.000346031
0.000342691
0.000339228
0.000335655
0.000331993
0.000328267
0.000324535
0.000320757
0.000316997
0.000312953
0.000310202
0.000272653
0.000271945
0.000272211
0.000273294
0.000275337
0.000278235
0.000281762
0.000285726
0.000289982
0.000294395
0.000298845
0.000303234
0.000307476
0.000311491
0.000315206
0.000318557
0.00032149
0.000323954
0.000325907
0.000327309
0.000328132
0.000328398
0.00032816
0.000327458
0.000326345
0.000324864
0.000323056
0.000320963
0.000318628
0.000316089
0.000313377
0.000310519
0.00030755
0.000304485
0.000301341
0.000298143
0.000294939
0.000291694
0.00028847
0.000284954
0.000282775
0.000247373
0.00024674
0.000246969
0.000247942
0.00024978
0.000252382
0.000255543
0.000259091
0.000262891
0.000266824
0.000270784
0.000274682
0.000278444
0.000281998
0.000285284
0.000288245
0.000290835
0.00029301
0.000294737
0.000295982
0.00029672
0.000296974
0.000296795
0.000296212
0.000295274
0.000294016
0.000292474
0.000290688
0.000288692
0.000286519
0.000284193
0.000281747
0.000279197
0.000276567
0.00027387
0.000271123
0.000268371
0.000265583
0.000262819
0.000259767
0.000258045
0.000224887
0.000224323
0.000224527
0.000225416
0.000227085
0.000229438
0.000232288
0.000235476
0.000238883
0.0002424
0.000245932
0.000249401
0.00025274
0.000255888
0.000258792
0.000261404
0.000263684
0.000265596
0.000267112
0.000268203
0.000268851
0.000269078
0.000268931
0.000268439
0.000267639
0.000266563
0.000265244
0.000263712
0.000261999
0.000260131
0.000258132
0.00025603
0.000253838
0.000251578
0.000249258
0.000246896
0.000244528
0.000242131
0.000239756
0.000237108
0.000235744
0.000204786
0.000204286
0.00020448
0.000205307
0.000206839
0.000208983
0.000211567
0.000214447
0.000217514
0.000220669
0.000223829
0.000226923
0.000229893
0.000232685
0.000235252
0.000237555
0.00023956
0.000241237
0.000242562
0.000243512
0.000244073
0.000244267
0.000244141
0.000243716
0.000243027
0.000242101
0.000240964
0.000239645
0.00023817
0.000236562
0.000234843
0.000233034
0.000231151
0.000229206
0.000227209
0.000225177
0.000223139
0.000221075
0.000219034
0.00021674
0.000215657
0.00018674
0.000186302
0.000186497
0.00018728
0.000188703
0.000190672
0.00019303
0.000195646
0.000198419
0.000201262
0.000204098
0.000206866
0.000209513
0.000211993
0.000214267
0.000216299
0.000218063
0.000219533
0.00022069
0.000221516
0.000221999
0.000222162
0.000222048
0.000221678
0.000221079
0.000220276
0.000219293
0.000218154
0.000216882
0.000215496
0.000214015
0.000212455
0.000210836
0.000209157
0.000207438
0.000205688
0.000203931
0.000202152
0.000200393
0.000198407
0.000197538
0.000170475
0.000170098
0.000170304
0.000171062
0.000172398
0.000174222
0.000176389
0.000178778
0.000181298
0.000183869
0.000186424
0.000188908
0.000191274
0.000193483
0.0001955
0.000197298
0.000198852
0.000200141
0.000201152
0.00020187
0.000202284
0.00020242
0.000202319
0.000201996
0.000201476
0.000200781
0.000199933
0.00019895
0.000197854
0.000196659
0.000195383
0.000194035
0.000192642
0.000191199
0.000189719
0.000188211
0.000186697
0.000185165
0.000183652
0.000181938
0.00018124
0.000155764
0.000155449
0.000155676
0.000156422
0.000157692
0.000159396
0.0001614
0.000163595
0.000165896
0.000168232
0.000170543
0.000172779
0.000174901
0.000176875
0.00017867
0.000180264
0.000181637
0.000182771
0.000183657
0.000184282
0.00018464
0.000184754
0.000184663
0.000184382
0.00018393
0.000183327
0.000182592
0.000181742
0.000180794
0.000179763
0.000178661
0.0001775
0.000176298
0.000175057
0.00017378
0.00017248
0.000171174
0.000169854
0.000168549
0.000167071
0.000166496
0.00014242
0.000142164
0.000142422
0.000143168
0.000144389
0.000145994
0.000147861
0.000149889
0.000152
0.000154132
0.000156231
0.000158252
0.000160163
0.000161932
0.000163535
0.000164954
0.000166171
0.000167174
0.000167955
0.000168504
0.000168818
0.000168918
0.000168842
0.000168601
0.000168213
0.000167696
0.000167066
0.000166337
0.000165525
0.000164641
0.000163697
0.000162702
0.000161673
0.000160611
0.000159515
0.0001584
0.000157279
0.000156146
0.000155027
0.000153758
0.000153295
0.000130281
0.000130086
0.000130381
0.000131139
0.000132323
0.000133847
0.000135597
0.00013748
0.000139427
0.000141382
0.000143295
0.000145131
0.000146858
0.000148451
0.000149889
0.000151157
0.000152242
0.000153133
0.000153825
0.000154312
0.000154589
0.000154678
0.000154614
0.000154407
0.000154072
0.000153625
0.000153081
0.000152452
0.000151751
0.000150988
0.000150173
0.000149316
0.000148428
0.000147515
0.00014657
0.000145611
0.000144646
0.000143671
0.000142707
0.000141619
0.000141218
0.000119212
0.000119078
0.000119418
0.000120194
0.000121354
0.000122809
0.000124458
0.000126215
0.000128018
0.000129818
0.000131571
0.000133245
0.000134814
0.000136255
0.000137553
0.000138693
0.000139667
0.000140466
0.000141088
0.000141528
0.000141784
0.000141876
0.000141839
0.000141677
0.000141406
0.000141038
0.000140587
0.000140063
0.000139476
0.000138836
0.000138152
0.000137432
0.000136679
0.000135912
0.000135119
0.000134305
0.000133484
0.000132655
0.000131836
0.000130907
0.000130608
0.000109098
0.000109026
0.000109415
0.000110216
0.000111356
0.000112753
0.000114312
0.000115959
0.000117636
0.0001193
0.000120913
0.000122447
0.000123879
0.000125191
0.000126369
0.000127402
0.000128282
0.000129004
0.000129565
0.000129962
0.000130194
0.000130277
0.000130246
0.000130104
0.000129865
0.000129541
0.000129145
0.000128686
0.000128175
0.000127621
0.00012703
0.000126409
0.000125761
0.000125101
0.000124423
0.000123723
0.000123019
0.000122309
0.000121607
0.000120825
0.000120523
9.98412e-05
9.98319e-05
0.000100274
0.000101101
0.000102223
0.000103565
0.000105042
0.000106588
0.000108155
0.0001097
0.000111193
0.000112606
0.000113921
0.000115124
0.000116201
0.000117147
0.000117954
0.00011862
0.000119145
0.000119529
0.000119773
0.000119891
0.000119916
0.000119848
0.000119696
0.000119471
0.000119182
0.000118836
0.000118443
0.000118008
0.000117537
0.000117036
0.000116509
0.000115968
0.00011541
0.000114828
0.000114242
0.000113649
0.000113065
0.000112392
0.000112241
9.1357e-05
9.14101e-05
9.19082e-05
9.27595e-05
9.38637e-05
9.51494e-05
9.65457e-05
9.7996e-05
9.94586e-05
0.000100899
0.000102288
0.000103601
0.000104819
0.00010593
0.000106923
0.000107792
0.000108533
0.00010914
0.000109614
0.000109953
0.000110155
0.000110235
0.000110224
0.000110128
0.000109956
0.00010972
0.000109434
0.000109104
0.000108738
0.000108344
0.000107925
0.000107488
0.000107033
0.000106574
0.000106104
0.000105617
0.000105127
0.000104636
0.000104146
0.000103622
0.000103348
8.35748e-05
8.3686e-05
8.42345e-05
8.51031e-05
8.6185e-05
8.7417e-05
8.87376e-05
9.00969e-05
9.14591e-05
9.27965e-05
9.40861e-05
9.53086e-05
9.64476e-05
9.74894e-05
9.84242e-05
9.92473e-05
9.99588e-05
0.000100561
0.00010106
0.000101457
0.000101756
0.000101964
0.000102106
0.000102178
0.000102181
0.000102122
0.000102007
0.000101841
0.000101629
0.000101374
0.000101083
0.000100762
0.000100414
0.000100051
9.96684e-05
9.92611e-05
9.8849e-05
9.84263e-05
9.80177e-05
9.75065e-05
9.75458e-05
7.64413e-05
7.66047e-05
7.71893e-05
7.8051e-05
7.90875e-05
8.02538e-05
8.15019e-05
8.27864e-05
8.40701e-05
8.53227e-05
8.65216e-05
8.76521e-05
8.87053e-05
8.96731e-05
9.05462e-05
9.13128e-05
9.19617e-05
9.24834e-05
9.28742e-05
9.31359e-05
9.32679e-05
9.32898e-05
9.32349e-05
9.31152e-05
9.29449e-05
9.27378e-05
9.25046e-05
9.22535e-05
9.199e-05
9.17184e-05
9.14425e-05
9.11655e-05
9.08861e-05
9.06113e-05
9.03373e-05
9.00566e-05
8.97745e-05
8.94974e-05
8.92075e-05
8.89572e-05
8.85991e-05
6.99133e-05
7.01296e-05
7.0742e-05
7.15715e-05
7.2523e-05
7.35753e-05
7.47054e-05
7.58876e-05
7.70955e-05
7.82975e-05
7.94601e-05
8.05538e-05
8.15602e-05
8.24745e-05
8.33043e-05
8.40646e-05
8.47706e-05
8.54326e-05
8.60538e-05
8.663e-05
8.71546e-05
8.7619e-05
8.80287e-05
8.83665e-05
8.86265e-05
8.88095e-05
8.89179e-05
8.8955e-05
8.89258e-05
8.88371e-05
8.8695e-05
8.85054e-05
8.82768e-05
8.80122e-05
8.77269e-05
8.74127e-05
8.70783e-05
8.67256e-05
8.63993e-05
8.59005e-05
8.6233e-05
6.39376e-05
6.41971e-05
6.48333e-05
6.56364e-05
6.65105e-05
6.74384e-05
6.84042e-05
6.93983e-05
7.04204e-05
7.14703e-05
7.254e-05
7.36088e-05
7.46416e-05
7.55938e-05
7.64194e-05
7.70822e-05
7.75624e-05
7.78594e-05
7.79877e-05
7.79761e-05
7.78377e-05
7.76102e-05
7.73367e-05
7.70446e-05
7.67518e-05
7.64718e-05
7.62143e-05
7.59862e-05
7.57915e-05
7.56315e-05
7.55057e-05
7.54123e-05
7.53475e-05
7.53072e-05
7.52958e-05
7.53042e-05
7.53091e-05
7.53386e-05
7.53313e-05
7.55069e-05
7.49118e-05
5.84589e-05
5.86962e-05
5.92814e-05
6.00197e-05
6.08443e-05
6.17423e-05
6.26753e-05
6.35994e-05
6.44829e-05
6.53132e-05
6.60999e-05
6.68722e-05
6.76713e-05
6.85375e-05
6.94993e-05
7.0566e-05
7.17252e-05
7.29455e-05
7.41851e-05
7.53938e-05
7.65451e-05
7.76008e-05
7.85409e-05
7.93367e-05
7.99841e-05
8.04898e-05
8.0864e-05
8.11173e-05
8.12617e-05
8.13086e-05
8.12686e-05
8.11508e-05
8.09662e-05
8.07202e-05
8.04249e-05
8.00781e-05
7.96947e-05
7.92646e-05
7.88694e-05
7.8173e-05
7.88012e-05
5.34995e-05
5.36479e-05
5.40346e-05
5.44895e-05
5.50229e-05
5.57039e-05
5.65588e-05
5.75733e-05
5.86964e-05
5.98434e-05
6.09121e-05
6.18043e-05
6.24449e-05
6.27955e-05
6.28586e-05
6.26738e-05
6.23057e-05
6.1828e-05
6.13055e-05
6.08001e-05
6.02971e-05
5.9804e-05
5.9315e-05
5.88584e-05
5.84407e-05
5.80673e-05
5.77507e-05
5.75075e-05
5.73511e-05
5.72872e-05
5.73152e-05
5.74335e-05
5.76375e-05
5.7922e-05
5.82854e-05
5.87209e-05
5.91964e-05
5.9745e-05
6.02566e-05
6.11342e-05
6.0653e-05
4.92006e-05
4.9399e-05
4.9714e-05
4.98993e-05
4.99503e-05
4.99576e-05
5.00002e-05
5.01559e-05
5.05133e-05
5.11664e-05
5.21981e-05
5.36545e-05
5.55241e-05
5.77331e-05
6.01639e-05
6.26817e-05
6.51583e-05
6.74878e-05
6.95976e-05
7.14263e-05
7.30027e-05
7.43415e-05
7.54273e-05
7.62743e-05
7.69188e-05
7.73965e-05
7.77313e-05
7.796e-05
7.8089e-05
7.81486e-05
7.81537e-05
7.81059e-05
7.80077e-05
7.78564e-05
7.76587e-05
7.74151e-05
7.71381e-05
7.68087e-05
7.64898e-05
7.60021e-05
7.61189e-05
4.55814e-05
4.597e-05
4.65619e-05
4.70561e-05
4.73218e-05
4.73227e-05
4.70447e-05
4.65183e-05
4.58302e-05
4.51167e-05
4.45426e-05
4.42665e-05
4.43923e-05
4.49308e-05
4.57995e-05
4.6859e-05
4.79611e-05
4.89841e-05
4.98487e-05
5.0519e-05
5.09639e-05
5.11806e-05
5.10838e-05
5.07758e-05
5.03292e-05
4.97865e-05
4.92124e-05
4.87316e-05
4.8467e-05
4.83912e-05
4.84076e-05
4.84742e-05
4.85807e-05
4.87194e-05
4.88847e-05
4.90608e-05
4.92599e-05
4.94094e-05
4.9766e-05
4.92319e-05
5.20976e-05
4.2301e-05
4.22162e-05
4.29063e-05
4.50385e-05
4.8695e-05
5.32871e-05
5.81071e-05
6.26846e-05
6.67797e-05
7.02905e-05
7.31877e-05
7.54795e-05
7.71967e-05
7.83824e-05
7.90882e-05
7.93715e-05
7.92932e-05
7.89145e-05
7.82944e-05
7.74794e-05
7.65268e-05
7.56639e-05
7.47542e-05
7.38559e-05
7.29903e-05
7.21568e-05
7.13814e-05
7.05437e-05
6.96187e-05
6.86815e-05
6.77526e-05
6.68293e-05
6.58941e-05
6.49199e-05
6.38978e-05
6.28127e-05
6.16395e-05
6.03565e-05
5.88535e-05
5.7834e-05
5.40209e-05
0.41885
0.274843
0.214504
0.180699
0.157343
0.138774
0.122917
0.108765
0.0956966
0.08338
0.0715582
0.0600907
0.0488982
0.0379779
0.0275678
0.0180906
0.00992092
0.00400805
0.000465094
0.00110807
0.000402795
0.000113586
0.000189064
0.00024681
0.000282742
0.000278345
0.000254057
0.000233315
0.000220084
0.000209814
0.00019964
0.000188885
0.000177728
0.000166431
0.000155188
0.00014417
0.000133619
0.000123715
0.000114661
0.000106543
9.9419e-05
9.32787e-05
8.80275e-05
8.35062e-05
7.95212e-05
7.64007e-05
7.32301e-05
6.95946e-05
6.59839e-05
6.25158e-05
5.91169e-05
5.5794e-05
5.25127e-05
4.93328e-05
4.62606e-05
4.33409e-05
4.05564e-05
3.85947e-05
3.60194e-05
3.39798e-05
3.25183e-05
3.15031e-05
3.10366e-05
3.09353e-05
3.12967e-05
3.19591e-05
3.27799e-05
3.3638e-05
3.46629e-05
3.54917e-05
3.67806e-05
3.70232e-05
3.9273e-05
3.82411e-05
0.669919
0.415952
0.298778
0.238475
0.201301
0.175041
0.154671
0.137749
0.122963
0.109583
0.0971264
0.0852578
0.0737434
0.0624262
0.0512336
0.0402168
0.029483
0.0195695
0.0110259
0.00473914
0.000910419
0.00105158
0.000527996
0.000199126
9.94027e-05
0.000202104
0.000233419
0.000244057
0.000234057
0.000216697
0.000201989
0.000189848
0.000178875
0.00016817
0.000157363
0.000146458
0.000135692
0.000125327
0.000115661
0.000106923
9.92403e-05
9.26427e-05
8.70491e-05
8.23128e-05
7.81196e-05
7.57075e-05
7.25442e-05
6.93857e-05
6.60713e-05
6.276e-05
5.94871e-05
5.62955e-05
5.31213e-05
5.0029e-05
4.70196e-05
4.41425e-05
4.13929e-05
3.86295e-05
3.56579e-05
3.36425e-05
3.22357e-05
3.12851e-05
3.08656e-05
3.08316e-05
3.12496e-05
3.19599e-05
3.28065e-05
3.36772e-05
3.47037e-05
3.55444e-05
3.68064e-05
3.71123e-05
3.92614e-05
3.84021e-05
0.392765
0.358976
0.307798
0.259507
0.223167
0.195802
0.174588
0.157356
0.142633
0.129524
0.117459
0.106061
0.0950753
0.0843121
0.0736299
0.0629407
0.0521608
0.0413875
0.0307948
0.020829
0.0121457
0.00563256
0.00145569
0.000363759
0.000339346
4.84845e-05
4.79536e-05
0.000166723
0.000198341
0.00021259
0.000213038
0.000200291
0.000185186
0.000171311
0.000159166
0.000148033
0.000137411
0.000127151
0.000117307
0.00010808
9.96975e-05
9.23681e-05
8.61616e-05
8.102e-05
7.66664e-05
7.31876e-05
7.04135e-05
6.77907e-05
6.48625e-05
6.17137e-05
5.85217e-05
5.54039e-05
5.2328e-05
4.93069e-05
4.63576e-05
4.35194e-05
4.08655e-05
3.74647e-05
3.52246e-05
3.33257e-05
3.19544e-05
3.10849e-05
3.07184e-05
3.07794e-05
3.12542e-05
3.19932e-05
3.28577e-05
3.3739e-05
3.47643e-05
3.56165e-05
3.6858e-05
3.72308e-05
3.92631e-05
3.85815e-05
0.453166
0.312572
0.194137
0.178854
0.178685
0.171859
0.162769
0.15355
0.144548
0.135712
0.126937
0.118167
0.109357
0.10045
0.0913804
0.0821026
0.0725435
0.0627159
0.0526197
0.0423152
0.0320322
0.0222308
0.0135354
0.00686218
0.00238889
2.0744e-05
0.000875265
0.000168424
9.03608e-05
9.63065e-05
0.000159753
0.000180473
0.000188528
0.000182461
0.00016922
0.000154495
0.000141041
0.000129042
0.000118291
0.000108719
0.000100176
9.25621e-05
8.58623e-05
8.0112e-05
7.53421e-05
7.08534e-05
6.7513e-05
6.49428e-05
6.24001e-05
5.95522e-05
5.64899e-05
5.34131e-05
5.03955e-05
4.74343e-05
4.45512e-05
4.17745e-05
3.91476e-05
3.69441e-05
3.48549e-05
3.30164e-05
3.16768e-05
3.08919e-05
3.06037e-05
3.07613e-05
3.12903e-05
3.20473e-05
3.29208e-05
3.38117e-05
3.48367e-05
3.5704e-05
3.69298e-05
3.73661e-05
3.92845e-05
3.87542e-05
0.349027
0.322196
0.266161
0.20677
0.151425
0.10779
0.0910591
0.0978072
0.105924
0.110486
0.111898
0.111002
0.108387
0.104425
0.0993439
0.0933368
0.0865039
0.0789895
0.0708667
0.0621573
0.0529227
0.043277
0.0334714
0.023933
0.0153221
0.00828493
0.00345052
0.000470706
4.40063e-05
0.00021429
0.00017794
0.000129316
0.000105955
0.00013929
0.00015377
0.000158499
0.000152552
0.000139919
0.000125875
0.00011278
0.000101361
9.1982e-05
8.4565e-05
7.86538e-05
7.38957e-05
6.94006e-05
6.55514e-05
6.26128e-05
6.01917e-05
5.77371e-05
5.50242e-05
5.21573e-05
4.92887e-05
4.64631e-05
4.37066e-05
4.10432e-05
3.84988e-05
3.63467e-05
3.43808e-05
3.26646e-05
3.13863e-05
3.06912e-05
3.05072e-05
3.07637e-05
3.13421e-05
3.21109e-05
3.29883e-05
3.38884e-05
3.49141e-05
3.58009e-05
3.70141e-05
3.75102e-05
3.93226e-05
3.89217e-05
0.258166
0.253413
0.239192
0.221715
0.200278
0.175797
0.149937
0.123463
0.0965383
0.0697919
0.0530836
0.0625414
0.0744961
0.0822615
0.0864179
0.0877951
0.0869447
0.0843447
0.0802831
0.0749707
0.0685802
0.0612502
0.0531144
0.0443272
0.0351678
0.026035
0.0175342
0.0102564
0.00489656
0.00134646
0.000292292
0.000376363
8.06573e-05
6.56623e-05
6.05362e-05
0.000102978
0.000112125
0.000122648
0.000127542
0.00012296
0.000112162
9.96676e-05
8.7983e-05
7.83373e-05
7.13337e-05
6.63012e-05
6.25608e-05
5.97896e-05
5.76395e-05
5.56053e-05
5.33005e-05
5.06812e-05
4.79366e-05
4.52223e-05
4.26153e-05
4.01224e-05
3.77375e-05
3.5619e-05
3.38004e-05
3.2258e-05
3.10899e-05
3.04847e-05
3.04155e-05
3.07792e-05
3.14107e-05
3.2191e-05
3.307e-05
3.39777e-05
3.50028e-05
3.59095e-05
3.71097e-05
3.766e-05
3.93745e-05
3.90923e-05
0.184075
0.180145
0.175203
0.171706
0.168082
0.163419
0.157179
0.148982
0.13861
0.126064
0.11143
0.0948787
0.0763395
0.0554919
0.0365803
0.0459902
0.0587476
0.0667768
0.0711854
0.0727663
0.0720669
0.0694763
0.0652834
0.0597194
0.0529979
0.0453336
0.0370192
0.0284531
0.020153
0.012723
0.00689245
0.00288568
0.000280314
0.00084191
0.000192956
4.53729e-05
8.91202e-05
9.33391e-05
8.54166e-05
8.28372e-05
8.98972e-05
9.63301e-05
9.48172e-05
8.71418e-05
7.75061e-05
6.83906e-05
6.10021e-05
5.59091e-05
5.29515e-05
5.13794e-05
5.02009e-05
4.86576e-05
4.65494e-05
4.40545e-05
4.14759e-05
3.90139e-05
3.6738e-05
3.47518e-05
3.31128e-05
3.17834e-05
3.07897e-05
3.029e-05
3.03242e-05
3.07952e-05
3.14953e-05
3.22989e-05
3.31814e-05
3.40933e-05
3.51137e-05
3.60362e-05
3.72199e-05
3.78145e-05
3.94383e-05
3.9269e-05
0.108268
0.105805
0.103599
0.103383
0.104642
0.107099
0.110249
0.11345
0.115966
0.117149
0.11648
0.113617
0.108382
0.10073
0.0906416
0.0782374
0.0633952
0.0456159
0.0270636
0.0382211
0.0501085
0.0571725
0.0607612
0.0616243
0.0602467
0.0569831
0.0521248
0.045957
0.0387885
0.0310174
0.0231164
0.0157794
0.00942374
0.00474232
0.00158907
3.57761e-06
0.000764612
0.000327297
5.19321e-05
7.75738e-05
7.89166e-05
6.29261e-05
5.81997e-05
5.82055e-05
6.67783e-05
7.02611e-05
6.70693e-05
6.08716e-05
5.43371e-05
4.91979e-05
4.5924e-05
4.4051e-05
4.28418e-05
4.1581e-05
3.99554e-05
3.80148e-05
3.59661e-05
3.40628e-05
3.24917e-05
3.13001e-05
3.04878e-05
3.01199e-05
3.02397e-05
3.0793e-05
3.15714e-05
3.24249e-05
3.33279e-05
3.42471e-05
3.52588e-05
3.61893e-05
3.73508e-05
3.79755e-05
3.95136e-05
3.94512e-05
0.0411041
0.0401316
0.0391603
0.0391624
0.0400553
0.0419159
0.0450224
0.0493952
0.0548741
0.0611723
0.0678789