/*--------------------------------*- C++ -*----------------------------------*\
| =========                 |                                                 |
| \\      /  F ield         | OpenFOAM: The Open Source CFD Toolbox           |
|  \\    /   O peration     | Version:  2312                                  |
|   \\  /    A nd           | Website:  www.openfoam.com                      |
|    \\/     M anipulation  |                                                 |
\*---------------------------------------------------------------------------*/
FoamFile
{
    version     2.0;
    format      ascii;
    arch        "LSB;label=32;scalar=64";
    class       volScalarField;
    location    "200";
    object      turbulenceProperties:nut;
}
// * * * * * * * * * * * * * * * * * * * * * * * * * * * * * * * * * * * * * //

dimensions      [0 2 -1 0 0 0 0];

internalField   nonuniform List<scalar> 
11040
(
2.78899e-05
6.0862e-05
0.000110143
0.000179441
0.000313876
0.000744528
0.000832369
0.000844179
0.000916705
0.00132456
0.00157415
0.00175693
0.00184785
0.0018168
0.00180093
0.00180574
0.00181654
0.00182373
0.00182379
0.00181625
0.00179812
0.00177066
0.00174099
0.00171154
0.00168134
0.00164919
0.00161443
0.00157667
0.00153512
0.00148895
0.0014373
0.00137933
0.00131413
0.00123982
0.00114816
0.00098388
0.000753666
0.000685888
0.00062308
0.000591089
0.000740337
5.21613e-06
6.22548e-06
2.47573e-05
8.6843e-05
0.000173306
0.000406835
0.000744815
0.00122346
0.00200923
0.0030477
0.00374681
0.00409688
0.00426466
0.00434622
0.00439237
0.00440075
0.00436265
0.0042855
0.00418976
0.0040938
0.00400219
0.00392261
0.00385185
0.00378275
0.00371639
0.0036571
0.00360585
0.00356106
0.00352075
0.00348371
0.00344939
0.0034175
0.00338762
0.00335814
0.00332458
0.00326473
0.00316518
0.00309867
0.00307116
0.00305009
0.00374952
6.36861e-06
6.58342e-06
6.01781e-06
9.78237e-06
2.44035e-05
8.06227e-05
0.000207494
0.000397921
0.000677162
0.00106754
0.0016048
0.00226697
0.00300386
0.00373927
0.00438473
0.00487458
0.00519588
0.00538671
0.0055061
0.00560095
0.00568398
0.00574821
0.00579379
0.00582452
0.00584438
0.00585928
0.00587161
0.00588111
0.00588644
0.00588713
0.00588356
0.00587669
0.00586763
0.00585636
0.00584222
0.00582012
0.00579003
0.00576292
0.00576306
0.00571881
0.00622096
6.14178e-06
6.20338e-06
6.16035e-06
5.50184e-06
4.94401e-06
3.49848e-06
4.97793e-06
1.89349e-05
5.99841e-05
0.000120417
0.00019088
0.000280344
0.000424467
0.000674921
0.00107984
0.00166149
0.00240121
0.00323669
0.00407886
0.00483851
0.00545726
0.00591132
0.00623117
0.00647579
0.00668062
0.00686187
0.0070244
0.00716905
0.00729674
0.00740965
0.00751064
0.00760229
0.00768641
0.00776347
0.00783329
0.00789402
0.00794834
0.00799521
0.00806187
0.00808357
0.00839725
6.14622e-06
6.14951e-06
6.18439e-06
6.12782e-06
5.83771e-06
4.70872e-06
2.63709e-06
8.90897e-07
2.12449e-07
2.92838e-06
9.15527e-08
2.35759e-07
3.91535e-08
3.36007e-07
3.36593e-06
4.05208e-05
0.000166402
0.000384681
0.000754792
0.00131717
0.00208423
0.0029675
0.00384318
0.00465304
0.00536574
0.00597157
0.0064801
0.0069096
0.00728066
0.00761126
0.00791455
0.00819847
0.00846683
0.00872125
0.00896167
0.00918645
0.0093974
0.00959306
0.00979391
0.00996504
0.0102038
6.11928e-06
6.12116e-06
6.12338e-06
6.13039e-06
6.13699e-06
6.1161e-06
5.78002e-06
4.81452e-06
3.53648e-06
2.07065e-06
1.38218e-06
9.07256e-07
6.15848e-07
3.75375e-07
7.08548e-08
4.55186e-08
4.08598e-14
5.37224e-05
0.0001513
6.57491e-07
0.000103576
0.000333909
0.000666449
0.00111847
0.00168684
0.00234894
0.00307894
0.00384681
0.00462407
0.00538658
0.00611692
0.00680475
0.00744643
0.0080453
0.00860616
0.00913253
0.00962874
0.0100997
0.0105541
0.0109826
0.0113794
6.11492e-06
6.11805e-06
6.12116e-06
6.12483e-06
6.12675e-06
6.14279e-06
6.19811e-06
6.25482e-06
6.23458e-06
6.18016e-06
5.81e-06
5.58546e-06
5.31809e-06
5.03788e-06
4.74495e-06
4.27336e-06
3.38466e-06
1.94666e-06
7.62467e-07
4.0104e-14
2.6599e-06
1.36878e-08
1.57596e-06
1.37603e-05
6.45134e-05
0.000179357
0.000361275
0.000628174
0.000995398
0.00147776
0.00207867
0.00279299
0.0036099
0.00451433
0.00548341
0.00648747
0.0074946
0.00848788
0.00944281
0.0103378
0.0112263
6.11417e-06
6.11694e-06
6.11871e-06
6.1205e-06
6.12252e-06
6.12332e-06
6.12789e-06
6.15294e-06
6.20464e-06
6.28847e-06
6.36826e-06
6.43676e-06
6.48822e-06
6.52626e-06
6.56141e-06
6.59899e-06
6.66395e-06
6.50141e-06
6.32527e-06
5.42541e-06
3.60312e-06
1.73339e-06
7.93469e-07
7.65799e-10
8.44544e-07
7.33306e-06
1.71543e-07
0.000106816
2.40646e-06
7.02055e-05
0.000145413
0.000286359
0.000524837
0.000886846
0.00140714
0.0021078
0.00299121
0.0040642
0.00529961
0.00661822
0.00821527
6.11328e-06
6.11529e-06
6.11611e-06
6.11683e-06
6.11783e-06
6.11907e-06
6.12011e-06
6.12056e-06
6.12281e-06
6.13007e-06
6.14568e-06
6.16888e-06
6.1972e-06
6.22888e-06
6.26273e-06
6.30716e-06
6.36131e-06
6.4369e-06
6.50829e-06
6.68261e-06
6.68748e-06
6.12173e-06
5.39218e-06
4.30078e-06
3.34162e-06
2.13471e-06
1.16337e-06
2.61938e-07
8.10076e-11
6.58695e-07
2.70538e-06
1.7947e-05
1.37235e-07
4.15191e-06
2.75989e-05
0.000118901
0.000304148
0.000635765
0.00117353
0.00189273
0.00315559
6.11219e-06
6.11307e-06
6.11279e-06
6.11245e-06
6.11245e-06
6.11282e-06
6.11342e-06
6.11404e-06
6.11433e-06
6.1134e-06
6.11181e-06
6.11094e-06
6.11115e-06
6.11264e-06
6.11512e-06
6.11832e-06
6.12439e-06
6.13763e-06
6.15389e-06
6.19301e-06
6.26981e-06
6.36619e-06
6.41836e-06
6.56111e-06
6.51796e-06
6.35304e-06
5.8105e-06
5.33871e-06
3.96023e-06
2.87393e-06
1.83007e-06
8.21596e-07
2.13698e-07
5.77177e-08
1.13775e-07
9.94802e-07
1.29721e-05
7.87011e-05
7.27629e-06
5.43144e-05
0.00034656
6.1106e-06
6.11021e-06
6.10903e-06
6.10806e-06
6.10752e-06
6.10741e-06
6.10762e-06
6.10802e-06
6.10843e-06
6.10877e-06
6.10844e-06
6.10807e-06
6.10762e-06
6.10704e-06
6.10635e-06
6.1054e-06
6.1042e-06
6.10276e-06
6.10179e-06
6.10073e-06
6.10144e-06
6.11283e-06
6.13487e-06
6.17342e-06
6.22571e-06
6.29627e-06
6.36279e-06
6.43018e-06
6.51382e-06
6.44262e-06
6.22903e-06
5.66491e-06
4.71305e-06
3.35625e-06
2.12418e-06
9.85037e-07
1.21203e-07
3.07105e-09
2.05572e-08
1.24521e-07
1.24067e-05
6.10838e-06
6.10695e-06
6.10535e-06
6.10428e-06
6.1037e-06
6.1035e-06
6.10357e-06
6.10379e-06
6.10407e-06
6.1043e-06
6.10437e-06
6.10435e-06
6.10452e-06
6.10482e-06
6.10518e-06
6.10551e-06
6.10577e-06
6.10582e-06
6.10568e-06
6.10511e-06
6.10368e-06
6.1014e-06
6.09977e-06
6.09876e-06
6.1001e-06
6.10463e-06
6.11768e-06
6.13711e-06
6.17373e-06
6.22614e-06
6.29433e-06
6.36646e-06
6.43841e-06
6.51521e-06
6.42008e-06
6.06524e-06
5.13708e-06
3.39652e-06
1.65278e-06
6.41901e-07
1.05911e-08
6.10565e-06
6.1038e-06
6.10241e-06
6.10171e-06
6.10144e-06
6.10142e-06
6.10156e-06
6.10178e-06
6.10203e-06
6.10224e-06
6.10243e-06
6.10231e-06
6.10232e-06
6.10247e-06
6.10275e-06
6.10313e-06
6.10359e-06
6.1041e-06
6.10461e-06
6.10516e-06
6.10562e-06
6.10571e-06
6.10549e-06
6.10492e-06
6.10401e-06
6.10273e-06
6.10138e-06
6.10009e-06
6.0992e-06
6.10086e-06
6.10663e-06
6.12015e-06
6.14384e-06
6.19516e-06
6.27428e-06
6.38344e-06
6.50265e-06
6.61353e-06
6.34346e-06
6.10951e-06
4.427e-06
6.10286e-06
6.10134e-06
6.10061e-06
6.10046e-06
6.10053e-06
6.10068e-06
6.10088e-06
6.10109e-06
6.10131e-06
6.10151e-06
6.10166e-06
6.1018e-06
6.1017e-06
6.10171e-06
6.10181e-06
6.102e-06
6.10225e-06
6.10258e-06
6.10294e-06
6.10339e-06
6.10384e-06
6.10421e-06
6.10452e-06
6.1048e-06
6.10503e-06
6.10519e-06
6.10522e-06
6.1051e-06
6.10468e-06
6.10392e-06
6.10277e-06
6.10125e-06
6.09962e-06
6.0989e-06
6.10156e-06
6.11413e-06
6.14066e-06
6.2026e-06
6.30402e-06
6.44341e-06
6.61167e-06
6.10048e-06
6.0999e-06
6.09991e-06
6.10011e-06
6.1003e-06
6.10046e-06
6.10061e-06
6.10077e-06
6.10093e-06
6.1011e-06
6.10125e-06
6.10139e-06
6.1015e-06
6.10157e-06
6.10149e-06
6.10151e-06
6.10159e-06
6.10174e-06
6.10192e-06
6.10217e-06
6.10242e-06
6.1026e-06
6.10277e-06
6.10294e-06
6.10311e-06
6.10329e-06
6.10349e-06
6.10369e-06
6.10389e-06
6.10406e-06
6.10418e-06
6.10418e-06
6.10395e-06
6.10326e-06
6.10194e-06
6.10004e-06
6.09791e-06
6.0956e-06
6.10164e-06
6.10883e-06
6.16897e-06
6.09884e-06
6.0995e-06
6.09982e-06
6.10001e-06
6.1001e-06
6.10015e-06
6.10019e-06
6.10024e-06
6.10031e-06
6.10038e-06
6.10048e-06
6.10059e-06
6.10071e-06
6.10084e-06
6.10094e-06
6.10101e-06
6.10104e-06
6.101e-06
6.10101e-06
6.10108e-06
6.10116e-06
6.10115e-06
6.10112e-06
6.1011e-06
6.10108e-06
6.10107e-06
6.10106e-06
6.10106e-06
6.10106e-06
6.10108e-06
6.10112e-06
6.10117e-06
6.10123e-06
6.10128e-06
6.1013e-06
6.10118e-06
6.10087e-06
6.09986e-06
6.09834e-06
6.09533e-06
6.09337e-06
6.09791e-06
6.09936e-06
6.09973e-06
6.09977e-06
6.09973e-06
6.09966e-06
6.09959e-06
6.09949e-06
6.0994e-06
6.09931e-06
6.09929e-06
6.0993e-06
6.09931e-06
6.09934e-06
6.0993e-06
6.09929e-06
6.09932e-06
6.09939e-06
6.09949e-06
6.09962e-06
6.09976e-06
6.09987e-06
6.09996e-06
6.10004e-06
6.10011e-06
6.10017e-06
6.10022e-06
6.10026e-06
6.1003e-06
6.10034e-06
6.10036e-06
6.10039e-06
6.10041e-06
6.10044e-06
6.10046e-06
6.1005e-06
6.10053e-06
6.10056e-06
6.10049e-06
6.10037e-06
6.09972e-06
6.09725e-06
6.09893e-06
6.09932e-06
6.09932e-06
6.09923e-06
6.09914e-06
6.09908e-06
6.09905e-06
6.09906e-06
6.09909e-06
6.09915e-06
6.09923e-06
6.09933e-06
6.09945e-06
6.09958e-06
6.09973e-06
6.09989e-06
6.10008e-06
6.10029e-06
6.10051e-06
6.10075e-06
6.10096e-06
6.10117e-06
6.10136e-06
6.10155e-06
6.10172e-06
6.10189e-06
6.10205e-06
6.1022e-06
6.10235e-06
6.10249e-06
6.10263e-06
6.10276e-06
6.10288e-06
6.10299e-06
6.1031e-06
6.10319e-06
6.10328e-06
6.1034e-06
6.1034e-06
6.10366e-06
6.09672e-06
6.09837e-06
6.09864e-06
6.09851e-06
6.09832e-06
6.09817e-06
6.09806e-06
6.09801e-06
6.098e-06
6.09803e-06
6.09808e-06
6.09816e-06
6.09825e-06
6.09836e-06
6.09848e-06
6.09862e-06
6.09877e-06
6.09894e-06
6.09912e-06
6.09932e-06
6.09954e-06
6.09976e-06
6.09998e-06
6.10019e-06
6.10039e-06
6.10059e-06
6.10079e-06
6.10098e-06
6.10118e-06
6.10137e-06
6.10156e-06
6.10175e-06
6.10195e-06
6.10214e-06
6.10234e-06
6.10254e-06
6.10273e-06
6.10292e-06
6.10314e-06
6.10328e-06
6.10362e-06
6.09642e-06
6.09791e-06
6.098e-06
6.09776e-06
6.09751e-06
6.09733e-06
6.09723e-06
6.09719e-06
6.09719e-06
6.09723e-06
6.0973e-06
6.09739e-06
6.09749e-06
6.09761e-06
6.09774e-06
6.09787e-06
6.09802e-06
6.09818e-06
6.09834e-06
6.09852e-06
6.0987e-06
6.09888e-06
6.09906e-06
6.09923e-06
6.09939e-06
6.09955e-06
6.0997e-06
6.09985e-06
6.1e-06
6.10015e-06
6.10029e-06
6.10044e-06
6.10058e-06
6.10073e-06
6.10088e-06
6.10104e-06
6.10119e-06
6.10135e-06
6.10151e-06
6.10166e-06
6.10188e-06
6.09617e-06
6.09737e-06
6.0973e-06
6.09698e-06
6.09672e-06
6.09655e-06
6.09647e-06
6.09645e-06
6.09648e-06
6.09655e-06
6.09664e-06
6.09674e-06
6.09686e-06
6.09699e-06
6.09713e-06
6.09727e-06
6.09742e-06
6.09758e-06
6.09774e-06
6.09792e-06
6.09809e-06
6.09826e-06
6.09843e-06
6.09859e-06
6.09874e-06
6.09889e-06
6.09903e-06
6.09917e-06
6.0993e-06
6.09943e-06
6.09955e-06
6.09968e-06
6.0998e-06
6.09993e-06
6.10005e-06
6.10017e-06
6.10029e-06
6.10042e-06
6.10054e-06
6.10067e-06
6.10079e-06
6.09589e-06
6.09678e-06
6.09657e-06
6.09623e-06
6.09598e-06
6.09585e-06
6.0958e-06
6.09581e-06
6.09587e-06
6.09596e-06
6.09608e-06
6.0962e-06
6.09634e-06
6.09648e-06
6.09663e-06
6.09679e-06
6.09695e-06
6.09711e-06
6.09728e-06
6.09745e-06
6.09763e-06
6.0978e-06
6.09797e-06
6.09813e-06
6.09828e-06
6.09843e-06
6.09856e-06
6.0987e-06
6.09883e-06
6.09895e-06
6.09908e-06
6.0992e-06
6.09932e-06
6.09943e-06
6.09955e-06
6.09967e-06
6.09977e-06
6.09989e-06
6.1e-06
6.10013e-06
6.1002e-06
6.09553e-06
6.09613e-06
6.09585e-06
6.09551e-06
6.0953e-06
6.0952e-06
6.09519e-06
6.09524e-06
6.09533e-06
6.09545e-06
6.09559e-06
6.09574e-06
6.09589e-06
6.09605e-06
6.09622e-06
6.09639e-06
6.09656e-06
6.09673e-06
6.09691e-06
6.09708e-06
6.09727e-06
6.09745e-06
6.09762e-06
6.09778e-06
6.09794e-06
6.09808e-06
6.09823e-06
6.09836e-06
6.09849e-06
6.09862e-06
6.09874e-06
6.09887e-06
6.09898e-06
6.0991e-06
6.09921e-06
6.09933e-06
6.09943e-06
6.09955e-06
6.09964e-06
6.09978e-06
6.09982e-06
6.09508e-06
6.09546e-06
6.09514e-06
6.09483e-06
6.09466e-06
6.09461e-06
6.09464e-06
6.09473e-06
6.09485e-06
6.09499e-06
6.09516e-06
6.09533e-06
6.0955e-06
6.09568e-06
6.09586e-06
6.09604e-06
6.09623e-06
6.09641e-06
6.0966e-06
6.09678e-06
6.09697e-06
6.09716e-06
6.09734e-06
6.0975e-06
6.09767e-06
6.09782e-06
6.09797e-06
6.09811e-06
6.09825e-06
6.09838e-06
6.09851e-06
6.09863e-06
6.09875e-06
6.09887e-06
6.09899e-06
6.0991e-06
6.09921e-06
6.09932e-06
6.09942e-06
6.09956e-06
6.09959e-06
6.09456e-06
6.09478e-06
6.09445e-06
6.09418e-06
6.09405e-06
6.09405e-06
6.09412e-06
6.09424e-06
6.0944e-06
6.09457e-06
6.09476e-06
6.09495e-06
6.09514e-06
6.09534e-06
6.09554e-06
6.09574e-06
6.09593e-06
6.09613e-06
6.09632e-06
6.09652e-06
6.09672e-06
6.09691e-06
6.0971e-06
6.09728e-06
6.09744e-06
6.09761e-06
6.09776e-06
6.09791e-06
6.09805e-06
6.09819e-06
6.09833e-06
6.09846e-06
6.09858e-06
6.0987e-06
6.09882e-06
6.09894e-06
6.09905e-06
6.09917e-06
6.09926e-06
6.09941e-06
6.09944e-06
6.09399e-06
6.09409e-06
6.09377e-06
6.09354e-06
6.09347e-06
6.09351e-06
6.09362e-06
6.09378e-06
6.09397e-06
6.09417e-06
6.09438e-06
6.09459e-06
6.09481e-06
6.09502e-06
6.09523e-06
6.09544e-06
6.09566e-06
6.09586e-06
6.09607e-06
6.09628e-06
6.09649e-06
6.09669e-06
6.09688e-06
6.09707e-06
6.09724e-06
6.09741e-06
6.09758e-06
6.09773e-06
6.09788e-06
6.09803e-06
6.09817e-06
6.0983e-06
6.09843e-06
6.09856e-06
6.09868e-06
6.09881e-06
6.09892e-06
6.09904e-06
6.09914e-06
6.09929e-06
6.09932e-06
6.09338e-06
6.09339e-06
6.09309e-06
6.09292e-06
6.0929e-06
6.09298e-06
6.09313e-06
6.09332e-06
6.09354e-06
6.09376e-06
6.094e-06
6.09423e-06
6.09446e-06
6.0947e-06
6.09493e-06
6.09515e-06
6.09538e-06
6.0956e-06
6.09582e-06
6.09604e-06
6.09625e-06
6.09646e-06
6.09667e-06
6.09686e-06
6.09704e-06
6.09722e-06
6.09739e-06
6.09755e-06
6.09771e-06
6.09786e-06
6.09801e-06
6.09815e-06
6.09828e-06
6.09842e-06
6.09855e-06
6.09867e-06
6.09879e-06
6.09891e-06
6.09902e-06
6.09917e-06
6.09921e-06
6.09273e-06
6.09268e-06
6.09242e-06
6.0923e-06
6.09233e-06
6.09245e-06
6.09264e-06
6.09286e-06
6.0931e-06
6.09335e-06
6.0936e-06
6.09385e-06
6.0941e-06
6.09435e-06
6.0946e-06
6.09484e-06
6.09508e-06
6.09531e-06
6.09554e-06
6.09577e-06
6.096e-06
6.09622e-06
6.09643e-06
6.09663e-06
6.09682e-06
6.097e-06
6.09718e-06
6.09735e-06
6.09751e-06
6.09767e-06
6.09782e-06
6.09797e-06
6.09811e-06
6.09825e-06
6.09838e-06
6.09851e-06
6.09863e-06
6.09876e-06
6.09887e-06
6.09901e-06
6.09906e-06
6.09205e-06
6.09197e-06
6.09175e-06
6.09168e-06
6.09175e-06
6.09191e-06
6.09213e-06
6.09237e-06
6.09263e-06
6.0929e-06
6.09317e-06
6.09344e-06
6.09371e-06
6.09397e-06
6.09423e-06
6.09449e-06
6.09473e-06
6.09498e-06
6.09522e-06
6.09546e-06
6.0957e-06
6.09593e-06
6.09614e-06
6.09635e-06
6.09655e-06
6.09674e-06
6.09693e-06
6.0971e-06
6.09727e-06
6.09743e-06
6.09759e-06
6.09774e-06
6.09788e-06
6.09802e-06
6.09816e-06
6.09829e-06
6.09842e-06
6.09855e-06
6.09866e-06
6.0988e-06
6.09886e-06
6.09134e-06
6.09124e-06
6.09106e-06
6.09104e-06
6.09115e-06
6.09135e-06
6.09159e-06
6.09185e-06
6.09213e-06
6.09241e-06
6.0927e-06
6.09298e-06
6.09326e-06
6.09354e-06
6.09381e-06
6.09407e-06
6.09433e-06
6.09459e-06
6.09484e-06
6.09509e-06
6.09534e-06
6.09557e-06
6.0958e-06
6.09601e-06
6.09622e-06
6.09642e-06
6.0966e-06
6.09679e-06
6.09696e-06
6.09712e-06
6.09728e-06
6.09744e-06
6.09759e-06
6.09773e-06
6.09787e-06
6.098e-06
6.09813e-06
6.09826e-06
6.09837e-06
6.09851e-06
6.09858e-06
6.09059e-06
6.09049e-06
6.09036e-06
6.09038e-06
6.09053e-06
6.09074e-06
6.091e-06
6.09128e-06
6.09157e-06
6.09186e-06
6.09215e-06
6.09245e-06
6.09274e-06
6.09303e-06
6.09331e-06
6.09359e-06
6.09386e-06
6.09412e-06
6.09439e-06
6.09464e-06
6.09489e-06
6.09514e-06
6.09537e-06
6.09559e-06
6.0958e-06
6.096e-06
6.0962e-06
6.09638e-06
6.09656e-06
6.09673e-06
6.09689e-06
6.09704e-06
6.09719e-06
6.09734e-06
6.09748e-06
6.09761e-06
6.09774e-06
6.09787e-06
6.09798e-06
6.09812e-06
6.09819e-06
6.08981e-06
6.08972e-06
6.08963e-06
6.08969e-06
6.08986e-06
6.09009e-06
6.09036e-06
6.09064e-06
6.09093e-06
6.09123e-06
6.09153e-06
6.09184e-06
6.09214e-06
6.09243e-06
6.09272e-06
6.09301e-06
6.09329e-06
6.09356e-06
6.09383e-06
6.09409e-06
6.09435e-06
6.0946e-06
6.09484e-06
6.09507e-06
6.09528e-06
6.09549e-06
6.09568e-06
6.09587e-06
6.09605e-06
6.09622e-06
6.09638e-06
6.09654e-06
6.09669e-06
6.09684e-06
6.09697e-06
6.09711e-06
6.09723e-06
6.09736e-06
6.09747e-06
6.09761e-06
6.09768e-06
6.089e-06
6.08891e-06
6.08887e-06
6.08896e-06
6.08914e-06
6.08938e-06
6.08964e-06
6.08992e-06
6.09022e-06
6.09052e-06
6.09082e-06
6.09113e-06
6.09143e-06
6.09173e-06
6.09203e-06
6.09232e-06
6.09261e-06
6.09289e-06
6.09317e-06
6.09344e-06
6.0937e-06
6.09395e-06
6.0942e-06
6.09443e-06
6.09464e-06
6.09485e-06
6.09505e-06
6.09524e-06
6.09542e-06
6.09559e-06
6.09576e-06
6.09591e-06
6.09606e-06
6.09621e-06
6.09634e-06
6.09647e-06
6.0966e-06
6.09672e-06
6.09683e-06
6.09696e-06
6.09703e-06
6.08814e-06
6.08808e-06
6.08806e-06
6.08817e-06
6.08836e-06
6.08859e-06
6.08885e-06
6.08912e-06
6.08941e-06
6.0897e-06
6.09e-06
6.09031e-06
6.09062e-06
6.09092e-06
6.09122e-06
6.09152e-06
6.09182e-06
6.0921e-06
6.09238e-06
6.09266e-06
6.09292e-06
6.09318e-06
6.09343e-06
6.09366e-06
6.09388e-06
6.09409e-06
6.09429e-06
6.09448e-06
6.09466e-06
6.09483e-06
6.09499e-06
6.09515e-06
6.0953e-06
6.09544e-06
6.09557e-06
6.0957e-06
6.09582e-06
6.09594e-06
6.09605e-06
6.09617e-06
6.09624e-06
6.08724e-06
6.08719e-06
6.08721e-06
6.08732e-06
6.0875e-06
6.08772e-06
6.08795e-06
6.08821e-06
6.08849e-06
6.08878e-06
6.08907e-06
6.08938e-06
6.08968e-06
6.08999e-06
6.0903e-06
6.0906e-06
6.09089e-06
6.09118e-06
6.09147e-06
6.09175e-06
6.09201e-06
6.09227e-06
6.09252e-06
6.09275e-06
6.09298e-06
6.09319e-06
6.09339e-06
6.09358e-06
6.09376e-06
6.09393e-06
6.09409e-06
6.09424e-06
6.09439e-06
6.09452e-06
6.09466e-06
6.09478e-06
6.0949e-06
6.09501e-06
6.09511e-06
6.09523e-06
6.0953e-06
6.08629e-06
6.08626e-06
6.08629e-06
6.0864e-06
6.08656e-06
6.08675e-06
6.08696e-06
6.0872e-06
6.08746e-06
6.08774e-06
6.08803e-06
6.08832e-06
6.08863e-06
6.08893e-06
6.08924e-06
6.08954e-06
6.08984e-06
6.09013e-06
6.09042e-06
6.0907e-06
6.09097e-06
6.09123e-06
6.09147e-06
6.09171e-06
6.09193e-06
6.09214e-06
6.09234e-06
6.09253e-06
6.0927e-06
6.09287e-06
6.09303e-06
6.09318e-06
6.09332e-06
6.09346e-06
6.09358e-06
6.0937e-06
6.09382e-06
6.09392e-06
6.09402e-06
6.09413e-06
6.0942e-06
6.08529e-06
6.08527e-06
6.0853e-06
6.08539e-06
6.08552e-06
6.08567e-06
6.08586e-06
6.08608e-06
6.08632e-06
6.08658e-06
6.08685e-06
6.08715e-06
6.08744e-06
6.08775e-06
6.08805e-06
6.08835e-06
6.08865e-06
6.08894e-06
6.08923e-06
6.0895e-06
6.08977e-06
6.09003e-06
6.09028e-06
6.09051e-06
6.09073e-06
6.09094e-06
6.09114e-06
6.09132e-06
6.0915e-06
6.09166e-06
6.09182e-06
6.09196e-06
6.0921e-06
6.09223e-06
6.09235e-06
6.09246e-06
6.09257e-06
6.09267e-06
6.09276e-06
6.09286e-06
6.09292e-06
6.08423e-06
6.08422e-06
6.08423e-06
6.08429e-06
6.08438e-06
6.0845e-06
6.08465e-06
6.08484e-06
6.08506e-06
6.0853e-06
6.08556e-06
6.08584e-06
6.08613e-06
6.08643e-06
6.08672e-06
6.08702e-06
6.08732e-06
6.0876e-06
6.08789e-06
6.08816e-06
6.08843e-06
6.08868e-06
6.08892e-06
6.08915e-06
6.08937e-06
6.08957e-06
6.08976e-06
6.08995e-06
6.09012e-06
6.09028e-06
6.09043e-06
6.09057e-06
6.0907e-06
6.09082e-06
6.09093e-06
6.09104e-06
6.09114e-06
6.09123e-06
6.09132e-06
6.09141e-06
6.09146e-06
6.0831e-06
6.08309e-06
6.08308e-06
6.08309e-06
6.08314e-06
6.08322e-06
6.08333e-06
6.08349e-06
6.08368e-06
6.0839e-06
6.08414e-06
6.08441e-06
6.08468e-06
6.08496e-06
6.08525e-06
6.08554e-06
6.08583e-06
6.08611e-06
6.08638e-06
6.08665e-06
6.08691e-06
6.08716e-06
6.08739e-06
6.08761e-06
6.08782e-06
6.08802e-06
6.08821e-06
6.08838e-06
6.08855e-06
6.0887e-06
6.08884e-06
6.08897e-06
6.0891e-06
6.08921e-06
6.08932e-06
6.08941e-06
6.0895e-06
6.08959e-06
6.08966e-06
6.08974e-06
6.08979e-06
6.0819e-06
6.08188e-06
6.08183e-06
6.0818e-06
6.0818e-06
6.08183e-06
6.08191e-06
6.08203e-06
6.08219e-06
6.08238e-06
6.0826e-06
6.08284e-06
6.08309e-06
6.08336e-06
6.08363e-06
6.0839e-06
6.08417e-06
6.08444e-06
6.0847e-06
6.08496e-06
6.0852e-06
6.08544e-06
6.08566e-06
6.08588e-06
6.08608e-06
6.08626e-06
6.08644e-06
6.08661e-06
6.08676e-06
6.08691e-06
6.08704e-06
6.08716e-06
6.08728e-06
6.08738e-06
6.08748e-06
6.08757e-06
6.08765e-06
6.08773e-06
6.0878e-06
6.08787e-06
6.0879e-06
6.08062e-06
6.08058e-06
6.08049e-06
6.08041e-06
6.08036e-06
6.08035e-06
6.08039e-06
6.08047e-06
6.0806e-06
6.08075e-06
6.08093e-06
6.08114e-06
6.08136e-06
6.0816e-06
6.08184e-06
6.08209e-06
6.08234e-06
6.08258e-06
6.08283e-06
6.08306e-06
6.08329e-06
6.08351e-06
6.08372e-06
6.08391e-06
6.0841e-06
6.08428e-06
6.08444e-06
6.08459e-06
6.08473e-06
6.08486e-06
6.08498e-06
6.08509e-06
6.08519e-06
6.08528e-06
6.08536e-06
6.08544e-06
6.0855e-06
6.08556e-06
6.08561e-06
6.08566e-06
6.08568e-06
6.07925e-06
6.07918e-06
6.07905e-06
6.07892e-06
6.07883e-06
6.07878e-06
6.07878e-06
6.07882e-06
6.0789e-06
6.07901e-06
6.07914e-06
6.0793e-06
6.07948e-06
6.07967e-06
6.07987e-06
6.08008e-06
6.0803e-06
6.08051e-06
6.08072e-06
6.08093e-06
6.08113e-06
6.08132e-06
6.0815e-06
6.08168e-06
6.08184e-06
6.082e-06
6.08214e-06
6.08228e-06
6.08241e-06
6.08252e-06
6.08263e-06
6.08273e-06
6.08282e-06
6.08291e-06
6.08298e-06
6.08305e-06
6.08311e-06
6.08317e-06
6.08322e-06
6.08327e-06
6.08328e-06
6.07778e-06
6.07768e-06
6.07751e-06
6.07735e-06
6.07722e-06
6.07714e-06
6.07709e-06
6.07708e-06
6.07711e-06
6.07716e-06
6.07723e-06
6.07733e-06
6.07745e-06
6.07758e-06
6.07773e-06
6.07788e-06
6.07805e-06
6.07821e-06
6.07838e-06
6.07855e-06
6.07871e-06
6.07886e-06
6.07902e-06
6.07916e-06
6.0793e-06
6.07943e-06
6.07955e-06
6.07966e-06
6.07977e-06
6.07986e-06
6.07994e-06
6.08001e-06
6.08007e-06
6.08012e-06
6.08016e-06
6.08019e-06
6.08021e-06
6.08023e-06
6.08023e-06
6.08024e-06
6.08022e-06
6.07621e-06
6.07608e-06
6.07589e-06
6.0757e-06
6.07555e-06
6.07544e-06
6.07535e-06
6.07529e-06
6.07525e-06
6.07523e-06
6.07524e-06
6.07525e-06
6.07529e-06
6.07535e-06
6.07541e-06
6.07549e-06
6.07558e-06
6.07567e-06
6.07577e-06
6.07586e-06
6.07596e-06
6.07605e-06
6.07614e-06
6.07623e-06
6.07632e-06
6.0764e-06
6.07648e-06
6.07656e-06
6.07663e-06
6.07669e-06
6.07675e-06
6.07681e-06
6.07687e-06
6.07692e-06
6.07697e-06
6.07701e-06
6.07705e-06
6.07709e-06
6.07713e-06
6.07717e-06
6.07717e-06
6.07453e-06
6.07438e-06
6.07418e-06
6.07399e-06
6.07383e-06
6.0737e-06
6.07358e-06
6.07347e-06
6.07338e-06
6.07329e-06
6.07321e-06
6.07314e-06
6.07308e-06
6.07303e-06
6.07299e-06
6.07295e-06
6.07293e-06
6.07292e-06
6.07292e-06
6.07293e-06
6.07295e-06
6.07298e-06
6.07302e-06
6.07306e-06
6.07311e-06
6.07316e-06
6.07322e-06
6.07326e-06
6.0733e-06
6.07334e-06
6.07337e-06
6.07338e-06
6.07339e-06
6.07339e-06
6.07337e-06
6.07335e-06
6.07331e-06
6.07327e-06
6.07324e-06
6.07322e-06
6.07318e-06
6.07272e-06
6.07258e-06
6.0724e-06
6.07224e-06
6.07209e-06
6.07196e-06
6.07182e-06
6.07169e-06
6.07155e-06
6.0714e-06
6.07125e-06
6.07109e-06
6.07093e-06
6.07077e-06
6.07061e-06
6.07047e-06
6.07035e-06
6.07025e-06
6.07016e-06
6.07007e-06
6.07001e-06
6.06996e-06
6.06994e-06
6.06994e-06
6.06995e-06
6.06996e-06
6.06999e-06
6.07001e-06
6.07004e-06
6.07006e-06
6.07008e-06
6.0701e-06
6.07011e-06
6.07011e-06
6.0701e-06
6.07009e-06
6.07009e-06
6.07009e-06
6.0701e-06
6.07012e-06
6.07014e-06
6.07079e-06
6.07068e-06
6.07056e-06
6.07045e-06
6.07035e-06
6.07024e-06
6.07013e-06
6.07e-06
6.06985e-06
6.06968e-06
6.06948e-06
6.06924e-06
6.06901e-06
6.06882e-06
6.06871e-06
6.06869e-06
6.06874e-06
6.06884e-06
6.06896e-06
6.06909e-06
6.06922e-06
6.06932e-06
6.06943e-06
6.06953e-06
6.06964e-06
6.06973e-06
6.06982e-06
6.06991e-06
6.06998e-06
6.07005e-06
6.07011e-06
6.07016e-06
6.0702e-06
6.07024e-06
6.07027e-06
6.0703e-06
6.07032e-06
6.07034e-06
6.07035e-06
6.07038e-06
6.07039e-06
6.06871e-06
6.06866e-06
6.06863e-06
6.0686e-06
6.06857e-06
6.06853e-06
6.0685e-06
6.06845e-06
6.06838e-06
6.06828e-06
6.06816e-06
6.06796e-06
6.06789e-06
6.06798e-06
6.06819e-06
6.0685e-06
6.0689e-06
6.06937e-06
6.0699e-06
6.07048e-06
6.07112e-06
6.0718e-06
6.07251e-06
6.07326e-06
6.07402e-06
6.07483e-06
6.07561e-06
6.07637e-06
6.07708e-06
6.07775e-06
6.07838e-06
6.07895e-06
6.07949e-06
6.07999e-06
6.08044e-06
6.08087e-06
6.08126e-06
6.08162e-06
6.08196e-06
6.08228e-06
6.08255e-06
0.0045663
0.00627003
0.00706816
0.00749172
0.00771941
0.0078007
0.00774786
0.00756851
0.00725841
0.00682845
0.00628279
0.00562838
0.00486882
0.00400373
0.00307025
0.00213037
0.0012196
0.000525726
6.27342e-05
0.000130239
4.1421e-06
5.81715e-08
1.12009e-06
5.2501e-06
9.27332e-06
8.48684e-06
6.51177e-06
5.66793e-06
5.7212e-06
5.99723e-06
6.1558e-06
6.16928e-06
6.12649e-06
6.09511e-06
6.09091e-06
6.10231e-06
6.11577e-06
6.12505e-06
6.12992e-06
6.13228e-06
6.13363e-06
6.13442e-06
6.13454e-06
6.13386e-06
6.13249e-06
6.13061e-06
6.12878e-06
6.12713e-06
6.12578e-06
6.12477e-06
6.12408e-06
6.12366e-06
6.12346e-06
6.12342e-06
6.12351e-06
6.12371e-06
6.124e-06
6.12429e-06
6.12474e-06
6.12526e-06
6.12583e-06
6.12646e-06
6.12715e-06
6.1279e-06
6.1287e-06
6.12954e-06
6.13041e-06
6.13132e-06
6.13225e-06
6.1332e-06
6.13415e-06
6.13517e-06
6.13593e-06
6.1376e-06
0.00657198
0.00844437
0.00933976
0.0097767
0.0100119
0.0101145
0.0100956
0.0099625
0.00971799
0.0093643
0.00890074
0.00832567
0.00763597
0.00682717
0.00589776
0.00486257
0.00372593
0.00257783
0.00149588
0.000663663
0.00012675
0.000174951
1.4595e-05
5.60068e-07
8.54112e-08
2.98311e-06
6.88234e-06
8.28226e-06
7.22782e-06
6.09307e-06
5.74698e-06
5.84152e-06
6.03689e-06
6.15336e-06
6.16743e-06
6.13583e-06
6.10963e-06
6.10508e-06
6.11493e-06
6.12715e-06
6.13492e-06
6.13749e-06
6.13695e-06
6.13532e-06
6.1336e-06
6.13176e-06
6.13007e-06
6.12845e-06
6.12695e-06
6.12568e-06
6.12473e-06
6.12411e-06
6.12378e-06
6.12367e-06
6.12371e-06
6.12387e-06
6.12412e-06
6.12449e-06
6.12495e-06
6.12545e-06
6.12601e-06
6.12663e-06
6.12731e-06
6.12805e-06
6.12885e-06
6.12969e-06
6.13057e-06
6.13149e-06
6.13243e-06
6.1334e-06
6.13437e-06
6.13542e-06
6.13621e-06
6.13794e-06
0.00801924
0.00984195
0.0108147
0.0113989
0.0117636
0.0119631
0.0120274
0.0119838
0.0118452
0.0116119
0.011278
0.010838
0.010287
0.00962008
0.00882884
0.00790942
0.00684685
0.00566029
0.00436929
0.00304468
0.00180159
0.000843598
0.000207599
1.70551e-05
3.32233e-06
1.92455e-09
4.32259e-09
1.64474e-06
5.82308e-06
8.43807e-06
8.10184e-06
6.66092e-06
5.8743e-06
5.71311e-06
5.88358e-06
6.09056e-06
6.18772e-06
6.18562e-06
6.14923e-06
6.12347e-06
6.11871e-06
6.12615e-06
6.13467e-06
6.1387e-06
6.1382e-06
6.13519e-06
6.13193e-06
6.12942e-06
6.12775e-06
6.12659e-06
6.1257e-06
6.12499e-06
6.12447e-06
6.12416e-06
6.12406e-06
6.12414e-06
6.12434e-06
6.12472e-06
6.12518e-06
6.12569e-06
6.12624e-06
6.12684e-06
6.1275e-06
6.12823e-06
6.12902e-06
6.12987e-06
6.13075e-06
6.13168e-06
6.13264e-06
6.13362e-06
6.13461e-06
6.13568e-06
6.13649e-06
6.13829e-06
0.0100891
0.0113406
0.0117635
0.0123796
0.0128606
0.0131537
0.0133106
0.0133872
0.0133944
0.0133232
0.0131592
0.0128981
0.0125371
0.0120705
0.0114872
0.0107781
0.0099232
0.00892248
0.0077695
0.00646351
0.00503581
0.00356998
0.00218755
0.00111932
0.000396211
4.49069e-09
0.000110239
2.79981e-07
4.85804e-08
1.84088e-07
3.49902e-06
8.04546e-06
9.05724e-06
7.57924e-06
6.29076e-06
5.71586e-06
5.70258e-06
5.91858e-06
6.11043e-06
6.19175e-06
6.18843e-06
6.15614e-06
6.13181e-06
6.12491e-06
6.12888e-06
6.13435e-06
6.1364e-06
6.1348e-06
6.13151e-06
6.1284e-06
6.12634e-06
6.12529e-06
6.12488e-06
6.12474e-06
6.1247e-06
6.1247e-06
6.12478e-06
6.12502e-06
6.12542e-06
6.12591e-06
6.12647e-06
6.12708e-06
6.12774e-06
6.12845e-06
6.12923e-06
6.13006e-06
6.13095e-06
6.13188e-06
6.13285e-06
6.13386e-06
6.13486e-06
6.13597e-06
6.13679e-06
6.13865e-06
0.0114981
0.0126689
0.0133151
0.0136691
0.0138621
0.0139365
0.014012
0.0141441
0.0142662
0.0143342
0.0143226
0.0142468
0.0141053
0.0138831
0.0135586
0.0131193
0.0125417
0.0118243
0.0109592
0.00992516
0.0087119
0.00732134
0.00579041
0.00420053
0.00270111
0.00144396
0.000604965
5.52609e-05
2.55501e-09
7.9717e-07
6.26215e-07
4.81075e-07
7.28642e-07
4.97302e-06
8.61899e-06
8.60521e-06
7.28204e-06
6.20512e-06
5.76472e-06
5.77919e-06
5.96295e-06
6.12463e-06
6.19488e-06
6.19089e-06
6.15885e-06
6.13265e-06
6.12281e-06
6.12448e-06
6.12927e-06
6.13194e-06
6.13146e-06
6.12919e-06
6.12682e-06
6.1253e-06
6.12474e-06
6.12481e-06
6.12512e-06
6.12549e-06
6.12588e-06
6.12631e-06
6.1268e-06
6.12735e-06
6.12798e-06
6.12868e-06
6.12946e-06
6.13029e-06
6.13118e-06
6.13212e-06
6.13309e-06
6.13411e-06
6.13514e-06
6.13626e-06
6.13711e-06
6.13903e-06
0.0121986
0.0130388
0.01374
0.0142705
0.0146348
0.0148373
0.0149252
0.0149566
0.0149533
0.0149121
0.0148335
0.0148361
0.0148629
0.0148576
0.0147728
0.0146084
0.0143385
0.0139656
0.0134607
0.0128004
0.0119654
0.010937
0.00970531
0.00827031
0.00667454
0.0049937
0.0033705
0.00194307
0.000914556
0.000225137
2.56367e-05
9.56168e-06
2.40887e-08
2.32434e-08
5.67117e-08
1.78169e-06
5.60915e-06
8.38526e-06
8.23783e-06
7.10914e-06
6.20577e-06
5.83327e-06
5.84466e-06
6.00883e-06
6.1526e-06
6.21119e-06
6.20006e-06
6.16258e-06
6.13182e-06
6.11863e-06
6.11885e-06
6.12405e-06
6.12821e-06
6.12942e-06
6.12847e-06
6.1269e-06
6.12577e-06
6.12542e-06
6.12571e-06
6.12635e-06
6.12708e-06
6.12778e-06
6.12842e-06
6.12906e-06
6.12976e-06
6.13054e-06
6.13141e-06
6.13236e-06
6.13335e-06
6.13439e-06
6.13543e-06
6.13659e-06
6.13744e-06
6.13943e-06
0.011622
0.0119748
0.0124028
0.0129167
0.0134779
0.0140268
0.0145027
0.0148799
0.0151535
0.0153269
0.0153996
0.0154123
0.0153874
0.0153289
0.0151986
0.0151508
0.0151189
0.0150553
0.0149003
0.0146317
0.0142291
0.013666
0.0129143
0.0119472
0.0107511
0.00932485
0.00770465
0.00596408
0.00421934
0.00262228
0.00139475
0.000581504
1.52184e-05
0.000200931
8.42702e-07
3.94761e-09
1.56508e-07
7.79284e-07
2.68004e-06
6.20278e-06
8.30473e-06
8.0036e-06
6.95592e-06
6.11708e-06
5.77792e-06
5.8169e-06
5.99434e-06
6.14718e-06
6.21236e-06
6.20443e-06
6.16721e-06
6.13419e-06
6.11795e-06
6.1161e-06
6.12097e-06
6.1262e-06
6.12897e-06
6.12929e-06
6.12837e-06
6.12744e-06
6.12713e-06
6.1275e-06
6.12829e-06
6.12922e-06
6.13012e-06
6.13097e-06
6.13181e-06
6.13269e-06
6.13363e-06
6.13466e-06
6.13572e-06