/*--------------------------------*- C++ -*----------------------------------*\
| =========                 |                                                 |
| \\      /  F ield         | OpenFOAM: The Open Source CFD Toolbox           |
|  \\    /   O peration     | Version:  2312                                  |
|   \\  /    A nd           | Website:  www.openfoam.com                      |
|    \\/     M anipulation  |                                                 |
\*---------------------------------------------------------------------------*/
FoamFile
{
    version     2.0;
    format      ascii;
    arch        "LSB;label=32;scalar=64";
    class       volScalarField;
    location    "200";
    object      turbulenceProperties:epsilon;
}
// * * * * * * * * * * * * * * * * * * * * * * * * * * * * * * * * * * * * * //

dimensions      [0 2 -3 0 0 0 0];

internalField   nonuniform List<scalar> 
11040
(
1189.44
3814.27
6385.8
7236.37
7203.41
8405.03
4726.49
3479.87
3055.74
4129.14
5990.87
8554.29
11462.4
13873.1
16074.5
17959
19384.7
20285.9
20642.4
20464.9
19684.5
18369.3
16898.8
15496.4
14149
12808.7
11476.4
10165.7
8883.56
7636.65
6434.77
5291.4
4223.02
3244.43
2359.84
1521.1
827.016
500.082
256.807
136.102
43.9781
27.3645
41.1232
98.0862
381.985
1539.56
5280.08
10361.3
14857.9
20122.3
25303.7
23925.8
19338.5
14411.9
10408.2
7608.85
5718.09
4425.53
3517.23
2858.22
2357.92
1962.85
1672.69
1445.02
1255.68
1103.82
985.049
890.753
813.306
748.222
692.725
645.101
603.813
567.404
534.051
501.316
462.031
413.229
369.686
336.766
287.898
639.496
9.02386
5.16441
3.8316
2.0752
1.15425
56.9368
416.496
1337.03
2911.54
4879.11
6754.95
8298.8
9385.85
9846.1
9617.71
8798.11
7600.43
6279.41
5041.96
3998.12
3176.07
2571.27
2148.63
1834.27
1588.89
1392.6
1231.1
1095.64
980.837
883.335
800.454
730.046
670.241
619.03
575.049
536.722
503.902
469.992
440.937
368.111
432.869
4.49477
3.76488
2.79398
2.12015
1.52126
0.567305
0.181886
0.599698
8.84758
37.1602
90.5283
172.467
304.456
527.091
877.18
1356.12
1910.01
2438.07
2832.77
3021.48
2995.16
2808.42
2538.92
2243.7
1963.41
1718.57
1512.76
1342.64
1202.69
1087.05
990.423
908.547
838.275
776.982
723.244
675.648
634.351
593.784
560.482
483.024
505.743
2.15792
2.00857
1.70167
1.28105
0.979329
0.733095
0.376447
0.095107
0.0132462
0.137656
0.00160255
0.002163
0.000105162
0.000338672
0.0105955
0.465274
4.23428
18.8847
61.0588
154.068
317.662
537.04
761.55
951.306
1087.13
1167.33
1199.35
1193.96
1162.57
1115.19
1059.73
1001.85
945.292
891.941
842.863
797.846
757.44
716.82
682.712
616.127
613.563
1.00041
1.0127
0.946852
0.798359
0.642501
0.537652
0.464429
0.367051
0.247714
0.123197
0.0658786
0.0328969
0.0168306
0.0078991
0.00104471
0.000550079
7.26854e-11
0.586896
0.922295
0.00169307
0.0501032
0.738527
5.47108
19.6265
48.6728
95.8744
161.206
241.187
330.116
421.488
509.171
588.136
654.84
707.342
744.94
767.477
776.736
771.662
760.187
722.573
718.302
0.482166
0.507276
0.527464
0.509884
0.455698
0.386945
0.325824
0.276596
0.231677
0.18876
0.140431
0.102661
0.0725619
0.0520069
0.0393499
0.0305178
0.0219813
0.0117557
0.00420706
2.80825e-11
0.0156382
3.95589e-05
0.00597689
0.0365383
0.0766709
0.0809642
0.195588
1.03014
3.91818
11.107
25.6673
51.0724
90.5145
146.204
218.255
303.564
396.145
487.587
571.727
629.702
704.816
0.237175
0.252769
0.274883
0.284424
0.275404
0.253332
0.225564
0.196147
0.165863
0.135657
0.106422
0.0799613
0.0579871
0.0417191
0.0308659
0.0239753
0.0196449
0.0162524
0.013997
0.0110321
0.00693053
0.0031318
0.00131663
5.44832e-07
0.00137131
0.0132196
0.000209103
0.126734
0.00254921
0.0457046
0.0550144
0.101244
0.3954
1.62519
5.44714
14.9532
34.6591
70.031
126.418
198.122
318.589
0.119263
0.127212
0.140835
0.152987
0.158594
0.156507
0.148143
0.135367
0.119378
0.101192
0.0822751
0.0641832
0.0483578
0.0358239
0.0267308
0.0204921
0.0162215
0.01325
0.0110861
0.00963229
0.00832347
0.00668779
0.00521988
0.0037188
0.0026301
0.00154189
0.000769757
0.00014478
1.62606e-08
0.000386874
0.00172765
0.0108884
5.24626e-05
0.00174423
0.00846581
0.0299427
0.131591
0.650932
2.74686
8.03025
27.5423
0.0607316
0.0645205
0.0715
0.0792714
0.085539
0.088842
0.0887406
0.0854927
0.0794648
0.0710893
0.0611049
0.0504779
0.0402545
0.0313661
0.0242936
0.0190076
0.0151609
0.0123553
0.0102629
0.00869078
0.00749372
0.00654602
0.00571866
0.00510534
0.00449157
0.00394992
0.00331536
0.00284058
0.00197355
0.00134737
0.000799678
0.000321028
6.86201e-05
1.47933e-05
2.85911e-05
0.00027612
0.00333143
0.0140216
0.00136214
0.0108191
0.197754
0.031194
0.0329609
0.0362991
0.0404502
0.0446087
0.0480323
0.0501468
0.0506315
0.0493739
0.0464233
0.0420688
0.0367425
0.0310047
0.0254768
0.0206296
0.0166737
0.0135799
0.0111957
0.00935475
0.00791387
0.0067708
0.00586733
0.00513959
0.00454493
0.00406693
0.00369571
0.00339865
0.0031617
0.00297951
0.00276743
0.00253481
0.00219797
0.0017471
0.00117879
0.000693361
0.000283974
2.55636e-05
3.63681e-07
2.71972e-06
1.59798e-05
0.00259155
0.0160933
0.0169062
0.0184534
0.0204891
0.022761
0.0249913
0.0268793
0.0281605
0.0286327
0.0281855
0.0268306
0.0246974
0.0220107
0.0190828
0.016218
0.0136364
0.011438
0.00962512
0.00815076
0.00695274
0.00597808
0.0051941
0.00456052
0.00403521
0.00360173
0.0032483
0.00296342
0.00273094
0.00254344
0.0023907
0.00226564
0.00215889
0.00206604
0.0019868
0.00186771
0.00168818
0.00136932
0.000851333
0.000379996
0.000124746
1.21459e-06
0.00831808
0.00868951
0.00939804
0.01036
0.0115013
0.0127351
0.0139439
0.0149948
0.0157572
0.0161167
0.016014
0.0154409
0.0144566
0.013177
0.011746
0.0103023
0.00894794
0.00773692
0.00668517
0.00578477
0.00502384
0.00439796
0.00388615
0.00345828
0.00309957
0.0028001
0.00255046
0.00234081
0.00216282
0.00201043
0.00187867
0.00176409
0.00166363
0.00157879
0.0015071
0.00144776
0.00139686
0.00135027
0.00123769
0.0011369
0.000785314
0.00429824
0.00446688
0.00478982
0.0052361
0.00578468
0.00641127
0.00707647
0.00772819
0.0083057
0.00874522
0.00899464
0.00902098
0.00881536
0.00840404
0.00783529
0.00716996
0.00646776
0.00577566
0.00512398
0.00452737
0.00399536
0.0035406
0.00315849
0.00283239
0.00255392
0.00231663
0.00211426
0.0019408
0.00179084
0.00165983
0.00154405
0.00144045
0.00134664
0.00126071
0.00118155
0.00110935
0.00104382
0.000987456
0.000939945
0.000895056
0.000868951
0.0022166
0.00229319
0.00244048
0.00264576
0.00290372
0.0032084
0.00354766
0.00390361
0.00425296
0.00456729
0.00481862
0.00498249
0.00504157
0.00499056
0.00483791
0.00460219
0.00430712
0.00397724
0.00363395
0.00329275
0.00296721
0.00267387
0.00241682
0.0021898
0.00199039
0.0018159
0.00166324
0.00152937
0.00141135
0.00130656
0.00121273
0.00112792
0.00105054
0.000979156
0.000912644
0.000850339
0.000791615
0.000735771
0.000683452
0.000630427
0.000593342
0.00114012
0.0011752
0.00124244
0.00133622
0.00145583
0.00160021
0.00176568
0.00194645
0.00213449
0.00231893
0.00248756
0.0026282
0.00272949
0.0027832
0.00278565
0.00273895
0.00264925
0.002525
0.002376
0.00221118
0.00203988
0.0018748
0.00172199
0.00158072
0.00145187
0.00133532
0.00123025
0.00113559
0.00105014
0.00097274
0.000902297
0.000837794
0.000778389
0.000723259
0.000671758
0.000623477
0.000578003
0.000534849
0.000493778
0.000453158
0.000419363
0.000587393
0.000603453
0.000634174
0.000676939
0.000732166
0.000799893
0.000878937
0.000967415
0.00106272
0.001161
0.00125755
0.00134722
0.00142454
0.00148437
0.0015227
0.00153728
0.00152813
0.00149709
0.00144694
0.00138111
0.00130399
0.00122288
0.00114246
0.00106378
0.000988631
0.000917912
0.000851907
0.000790571
0.000733743
0.000681118
0.000632339
0.000587018
0.00054483
0.000505393
0.000468397
0.000433675
0.000401041
0.000370245
0.000341112
0.000313068
0.00028892
0.000310329
0.000317839
0.000332342
0.000352531
0.000378919
0.000411668
0.000450324
0.000494207
0.000542417
0.000593577
0.000645888
0.000697299
0.000745452
0.000787836
0.000822071
0.000846246
0.000859064
0.000860092
0.000849752
0.000828847
0.000798829
0.000763104
0.000724411
0.000683888
0.000643076
0.000602937
0.000564041
0.000526735
0.000491222
0.000457577
0.000425801
0.000395827
0.0003676
0.000340991
0.000315891
0.000292269
0.000270083
0.000249194
0.000229532
0.000210888
0.000194493
0.00017168
0.000175386
0.000182659
0.000192781
0.00020616
0.00022293
0.000242874
0.000265697
0.000291042
0.000318359
0.000346901
0.000375803
0.000404027
0.000430376
0.000453616
0.000472588
0.000486351
0.000494232
0.00049592
0.000491468
0.000481236
0.000466603
0.000448921
0.000428952
0.000407688
0.000385824
0.000363851
0.000342126
0.000320912
0.00030038
0.00028064
0.000261749
0.000243756
0.000226642
0.000210389
0.000195022
0.00018056
0.000166922
0.000154078
0.000141987
0.000131145
9.9497e-05
0.000101411
0.000105228
0.000110552
0.000117673
0.00012668
0.000137446
0.000149818
0.00016363
0.000178636
0.000194496
0.000210821
0.000227135
0.000242868
0.000257396
0.000270099
0.000280404
0.000287827
0.000292023
0.000292786
0.000290108
0.000284532
0.000276698
0.000267027
0.000256094
0.000244339
0.000232096
0.00021964
0.000207187
0.000194904
0.000182907
0.000171275
0.000160083
0.000149353
0.000139097
0.000129353
0.000120162
0.000111469
0.000103266
9.55527e-05
8.85822e-05
5.97517e-05
6.07612e-05
6.28286e-05
6.5735e-05
6.96785e-05
7.47108e-05
8.0752e-05
8.77134e-05
9.55095e-05
0.000104016
0.000113064
0.000122462
0.000131979
0.000141326
0.000150184
0.000158217
0.0001651
0.000170535
0.000174277
0.000176142
0.000176027
0.000174113
0.000170696
0.000166016
0.000160393
0.000154076
0.000147276
0.000140178
0.000132932
0.000125659
0.000118455
0.000111387
0.000104524
9.78937e-05
9.15166e-05
8.54262e-05
7.96643e-05
7.41953e-05
6.90226e-05
6.41338e-05
5.97621e-05
3.69225e-05
3.74637e-05
3.86154e-05
4.02544e-05
4.25122e-05
4.54179e-05
4.89179e-05
5.29572e-05
5.74858e-05
6.24352e-05
6.7714e-05
7.32212e-05
7.88351e-05
8.44044e-05
8.97591e-05
9.47179e-05
9.90991e-05
0.000102728
0.000105452
0.000107142
0.000107709
0.0001072
0.000105748
0.00010348
0.000100569
9.71609e-05
9.33785e-05
8.93351e-05
8.51307e-05
8.08459e-05
7.6549e-05
7.22885e-05
6.8116e-05
6.40558e-05
6.01262e-05
5.63528e-05
5.27704e-05
4.93544e-05
4.6115e-05
4.30203e-05
4.03282e-05
2.33492e-05
2.36414e-05
2.42972e-05
2.52464e-05
2.65755e-05
2.83e-05
3.03833e-05
3.27896e-05
3.54878e-05
3.84373e-05
4.15855e-05
4.48753e-05
4.82388e-05
5.15927e-05
5.48428e-05
5.78884e-05
6.06264e-05
6.29555e-05
6.47837e-05
6.60295e-05
6.66297e-05
6.65947e-05
6.59857e-05
6.48687e-05
6.33379e-05
6.14716e-05
5.93428e-05
5.70218e-05
5.45698e-05
5.20406e-05
4.94775e-05
4.6914e-05
4.43844e-05
4.19071e-05
3.9496e-05
3.71689e-05
3.49514e-05
3.28267e-05
3.08069e-05
2.88487e-05
2.72177e-05
1.50495e-05
1.52077e-05
1.55881e-05
1.61511e-05
1.69526e-05
1.80007e-05
1.92698e-05
2.0736e-05
2.23789e-05
2.41733e-05
2.60869e-05
2.80859e-05
3.01306e-05
3.21728e-05
3.41586e-05
3.60305e-05
3.77292e-05
3.91957e-05
4.03759e-05
4.12196e-05
4.16873e-05
4.17791e-05
4.15257e-05
4.09614e-05
4.01369e-05
3.90965e-05
3.7883e-05
3.65386e-05
3.51007e-05
3.36018e-05
3.20684e-05
3.05245e-05
2.89903e-05
2.74791e-05
2.60007e-05
2.45668e-05
2.31957e-05
2.18756e-05
2.06179e-05
1.93771e-05
1.84018e-05
9.85461e-06
9.93994e-06
1.01643e-05
1.05053e-05
1.09991e-05
1.16493e-05
1.24381e-05
1.33493e-05
1.4369e-05
1.54808e-05
1.66645e-05
1.78991e-05
1.91603e-05
2.04194e-05
2.16447e-05
2.28022e-05
2.38572e-05
2.47751e-05
2.55239e-05
2.60736e-05
2.63999e-05
2.65013e-05
2.63941e-05
2.60974e-05
2.56401e-05
2.50473e-05
2.43439e-05
2.35546e-05
2.27017e-05
2.18043e-05
2.0881e-05
1.99441e-05
1.90087e-05
1.8083e-05
1.71731e-05
1.62868e-05
1.54365e-05
1.46142e-05
1.38295e-05
1.30411e-05
1.24632e-05
6.53903e-06
6.58461e-06
6.71895e-06
6.92957e-06
7.2397e-06
7.65058e-06
8.14978e-06
8.72594e-06
9.36964e-06
1.00699e-05
1.08136e-05
1.15873e-05
1.23758e-05
1.31614e-05
1.39248e-05
1.46457e-05
1.53034e-05
1.58773e-05
1.63484e-05
1.66987e-05
1.69139e-05
1.69928e-05
1.69457e-05
1.67836e-05
1.65228e-05
1.61776e-05
1.57624e-05
1.52916e-05
1.47789e-05
1.42363e-05
1.36752e-05
1.31029e-05
1.25298e-05
1.19596e-05
1.13972e-05
1.08473e-05
1.0318e-05
9.80394e-06
9.31275e-06
8.81007e-06
8.46971e-06
4.38761e-06
4.41156e-06
4.4932e-06
4.6258e-06
4.8241e-06
5.08816e-06
5.4092e-06
5.7793e-06
6.19187e-06
6.63947e-06
7.11344e-06
7.6049e-06
8.10419e-06
8.60017e-06
9.08086e-06
9.5338e-06
9.94648e-06
1.03065e-05
1.06025e-05
1.08237e-05
1.09616e-05
1.10162e-05
1.0994e-05
1.09015e-05
1.0748e-05
1.0542e-05
1.02919e-05
1.00066e-05
9.69446e-06
9.363e-06
9.01845e-06
8.66613e-06
8.3116e-06
7.9577e-06
7.60743e-06
7.26384e-06
6.93203e-06
6.60864e-06
6.29925e-06
5.97718e-06
5.77668e-06
2.97181e-06
2.98408e-06
3.03451e-06
3.1196e-06
3.24859e-06
3.42097e-06
3.63054e-06
3.87172e-06
4.13986e-06
4.42984e-06
4.73586e-06
5.052e-06
5.37194e-06
5.68856e-06
5.99432e-06
6.28147e-06
6.54232e-06
6.7693e-06
6.95563e-06
7.09481e-06
7.18193e-06
7.21733e-06
7.2055e-06
7.15021e-06
7.05712e-06
6.93129e-06
6.77796e-06
6.6026e-06
6.41021e-06
6.20527e-06
5.99149e-06
5.77271e-06
5.55134e-06
5.33002e-06
5.11032e-06
4.89412e-06
4.68469e-06
4.47996e-06
4.28387e-06
4.07665e-06
3.95837e-06
2.02882e-06
2.0349e-06
2.06664e-06
2.12232e-06
2.20763e-06
2.32185e-06
2.46058e-06
2.61987e-06
2.7964e-06
2.98663e-06
3.18662e-06
3.39237e-06
3.5997e-06
3.80401e-06
4.00047e-06
4.1842e-06
4.35042e-06
4.49449e-06
4.6123e-06
4.69995e-06
4.75454e-06
4.77667e-06
4.76951e-06
4.73539e-06
4.6777e-06
4.59962e-06
4.50432e-06
4.39505e-06
4.27487e-06
4.14658e-06
4.01245e-06
3.87497e-06
3.73551e-06
3.59585e-06
3.45674e-06
3.31952e-06
3.18627e-06
3.0557e-06
2.93048e-06
2.79646e-06
2.72617e-06
1.39425e-06
1.39712e-06
1.41755e-06
1.45473e-06
1.51208e-06
1.58887e-06
1.68194e-06
1.78847e-06
1.90611e-06
2.03238e-06
2.16456e-06
2.29995e-06
2.43575e-06
2.56894e-06
2.69641e-06
2.81505e-06
2.92188e-06
3.01401e-06
3.08895e-06
3.14436e-06
3.17851e-06
3.19205e-06
3.1873e-06
3.16562e-06
3.12917e-06
3.07988e-06
3.01973e-06
2.95075e-06
2.87484e-06
2.79371e-06
2.70886e-06
2.62162e-06
2.53316e-06
2.44421e-06
2.35544e-06
2.26773e-06
2.18232e-06
2.09844e-06
2.0179e-06
1.93082e-06
1.88871e-06
9.63402e-07
9.64713e-07
9.78211e-07
1.00357e-06
1.04277e-06
1.09512e-06
1.15836e-06
1.23048e-06
1.30978e-06
1.39452e-06
1.48283e-06
1.57285e-06
1.66271e-06
1.75041e-06
1.83391e-06
1.91125e-06
1.98051e-06
2.03993e-06
2.08798e-06
2.12325e-06
2.14471e-06
2.15295e-06
2.14959e-06
2.13552e-06
2.11207e-06
2.0805e-06
2.04209e-06
1.99807e-06
1.94965e-06
1.89787e-06
1.84365e-06
1.78777e-06
1.73118e-06
1.67398e-06
1.61691e-06
1.5604e-06
1.50519e-06
1.45087e-06
1.39865e-06
1.34178e-06
1.31616e-06
6.68667e-07
6.69268e-07
6.78464e-07
6.96142e-07
7.23383e-07
7.59562e-07
8.03067e-07
8.52448e-07
9.06492e-07
9.63967e-07
1.02357e-06
1.08403e-06
1.14408e-06
1.20238e-06
1.25761e-06
1.30848e-06
1.35381e-06
1.39247e-06
1.42354e-06
1.44615e-06
1.45972e-06
1.46472e-06
1.46237e-06
1.45318e-06
1.43801e-06
1.41767e-06
1.39296e-06
1.36468e-06
1.33356e-06
1.30023e-06
1.26531e-06
1.22922e-06
1.19271e-06
1.15579e-06
1.11884e-06
1.08216e-06
1.04624e-06
1.01086e-06
9.76819e-07
9.39523e-07
9.23835e-07
4.65742e-07
4.6607e-07
4.72547e-07
4.85147e-07
5.0438e-07
5.29719e-07
5.60002e-07
5.9419e-07
6.31407e-07
6.70781e-07
7.11407e-07
7.52405e-07
7.92909e-07
8.32032e-07
8.68903e-07
9.02693e-07
9.32639e-07
9.5804e-07
9.78324e-07
9.9298e-07
1.00165e-06
1.00473e-06
1.00308e-06
9.9704e-07
9.87126e-07
9.73883e-07
9.57829e-07
9.39467e-07
9.19268e-07
8.97635e-07
8.7495e-07
8.51522e-07
8.27762e-07
8.03771e-07
7.79643e-07
7.55665e-07
7.32138e-07
7.08938e-07
6.86569e-07
6.61999e-07
6.52113e-07
3.25272e-07
3.25531e-07
3.30257e-07
3.39429e-07
3.53218e-07
3.7119e-07
3.92507e-07
4.16422e-07
4.42304e-07
4.69536e-07
4.97486e-07
5.25545e-07
5.53123e-07
5.79622e-07
6.04471e-07
6.27131e-07
6.47116e-07
6.63986e-07
6.77398e-07
6.87044e-07
6.9271e-07
6.94681e-07
6.93605e-07
6.89669e-07
6.83228e-07
6.74641e-07
6.6424e-07
6.52339e-07
6.39236e-07
6.25198e-07
6.10461e-07
5.9521e-07
5.7974e-07
5.64105e-07
5.48306e-07
5.3259e-07
5.17135e-07
5.0187e-07
4.87128e-07
4.70879e-07
4.64746e-07
2.27601e-07
2.27877e-07
2.31441e-07
2.3825e-07
2.48279e-07
2.61173e-07
2.76332e-07
2.93218e-07
3.11382e-07
3.30386e-07
3.49789e-07
3.69167e-07
3.88115e-07
4.06233e-07
4.23141e-07
4.38489e-07
4.51966e-07
4.63296e-07
4.72265e-07
4.78693e-07
4.82443e-07
4.83735e-07
4.83031e-07
4.80448e-07
4.76212e-07
4.70568e-07
4.63734e-07
4.55921e-07
4.47319e-07
4.38092e-07
4.28398e-07
4.18368e-07
4.0817e-07
3.97883e-07
3.87446e-07
3.7708e-07
3.66856e-07
3.56741e-07
3.46948e-07
3.36191e-07
3.32098e-07
1.59447e-07
1.59762e-07
1.62529e-07
1.6767e-07
1.75055e-07
1.84399e-07
1.95274e-07
2.07297e-07
2.20148e-07
2.33519e-07
2.47102e-07
2.60603e-07
2.73742e-07
2.8625e-07
2.97872e-07
3.08381e-07
3.1758e-07
3.25298e-07
3.31409e-07
3.35805e-07
3.38414e-07
3.3939e-07
3.39073e-07
3.37526e-07
3.34893e-07
3.31332e-07
3.26988e-07
3.2199e-07
3.16456e-07
3.10507e-07
3.04239e-07
2.97745e-07
2.9107e-07
2.84383e-07
2.77597e-07
2.70762e-07
2.64005e-07
2.57304e-07
2.50819e-07
2.43638e-07
2.4123e-07
1.11762e-07
1.12112e-07
1.14308e-07
1.18238e-07
1.23725e-07
1.30548e-07
1.38408e-07
1.47031e-07
1.5619e-07
1.65668e-07
1.7525e-07
1.84734e-07
1.93927e-07
2.02645e-07
2.10719e-07
2.17996e-07
2.24347e-07
2.29664e-07
2.33864e-07
2.36886e-07
2.38671e-07
2.39332e-07
2.39118e-07
2.38067e-07
2.36281e-07
2.33875e-07
2.30948e-07
2.27589e-07
2.2389e-07
2.19925e-07
2.15759e-07
2.11446e-07
2.07019e-07
2.0258e-07
1.98096e-07
1.93551e-07
1.89056e-07
1.8461e-07
1.80287e-07
1.75579e-07
1.73712e-07
7.83353e-08
7.87068e-08
8.04784e-08
8.35059e-08
8.76014e-08
9.26019e-08
9.83033e-08
1.04519e-07
1.11088e-07
1.17856e-07
1.24671e-07
1.31389e-07
1.37877e-07
1.44013e-07
1.49684e-07
1.54794e-07
1.59261e-07
1.63021e-07
1.6603e-07
1.68259e-07
1.69683e-07
1.7038e-07
1.70526e-07
1.70129e-07
1.69242e-07
1.67932e-07
1.66258e-07
1.6428e-07
1.62048e-07
1.59609e-07
1.57002e-07
1.54265e-07
1.51421e-07
1.48552e-07
1.45629e-07
1.42637e-07
1.39669e-07
1.36711e-07
1.3385e-07
1.30615e-07
1.29839e-07
5.48749e-08
5.52502e-08
5.66916e-08
5.9034e-08
6.20972e-08
6.57643e-08
6.98994e-08
7.43791e-08
7.90984e-08
8.39536e-08
8.88365e-08
9.36415e-08
9.82709e-08
1.02636e-07
1.06659e-07
1.10275e-07
1.13425e-07
1.16062e-07
1.18148e-07
1.19658e-07
1.20563e-07
1.20924e-07
1.20875e-07
1.2044e-07
1.19667e-07
1.18618e-07
1.17348e-07
1.159e-07
1.14312e-07
1.12617e-07
1.10839e-07
1.09002e-07
1.07119e-07
1.05244e-07
1.03349e-07
1.01415e-07
9.94984e-08
9.76048e-08
9.57408e-08
9.37844e-08
9.27483e-08
3.84059e-08
3.8762e-08
3.99277e-08
4.17311e-08
4.40186e-08
4.67101e-08
4.97139e-08
5.29438e-08
5.63279e-08
5.98e-08
6.32933e-08
6.67406e-08
7.00748e-08
7.323e-08
7.61492e-08
7.87893e-08
8.11242e-08
8.31396e-08
8.48314e-08
8.61964e-08
8.7227e-08
8.79479e-08
8.84371e-08
8.86756e-08
8.8672e-08
8.84505e-08
8.80312e-08
8.74334e-08
8.66776e-08
8.57838e-08
8.47728e-08
8.36678e-08
8.24836e-08
8.12652e-08
7.99971e-08
7.86648e-08
7.7334e-08
7.59878e-08
7.47023e-08
7.31262e-08
7.3212e-08
2.68597e-08
2.71813e-08
2.81049e-08
2.94609e-08
3.11332e-08
3.30839e-08
3.52614e-08
3.76058e-08
4.00589e-08
4.25629e-08
4.50647e-08
4.75211e-08
4.98963e-08
5.21546e-08
5.42548e-08
5.61493e-08
5.77898e-08
5.91341e-08
6.0155e-08
6.0845e-08
6.11937e-08
6.12488e-08
6.10985e-08
6.07757e-08
6.03203e-08
5.97697e-08
5.91546e-08
5.84976e-08
5.78138e-08
5.71151e-08
5.64118e-08
5.57117e-08
5.50123e-08
5.43304e-08
5.36567e-08
5.29736e-08
5.22939e-08
5.16325e-08
5.09484e-08
5.03611e-08
4.95366e-08
1.87812e-08
1.90687e-08
1.9794e-08
2.07869e-08
2.19601e-08
2.33066e-08
2.4814e-08
2.64628e-08
2.82267e-08
3.0065e-08
3.19248e-08
3.37503e-08
3.5497e-08
3.71404e-08
3.86793e-08
4.01286e-08
4.15083e-08
4.28313e-08
4.40989e-08
4.52969e-08
4.64059e-08
4.74023e-08
4.82924e-08
4.90332e-08
4.96062e-08
5.00089e-08
5.02438e-08
5.03166e-08
5.02384e-08
5.00252e-08
4.96923e-08
4.92546e-08
4.87331e-08
4.8137e-08
4.75012e-08
4.68098e-08
4.60832e-08
4.53269e-08
4.46346e-08
4.35997e-08
4.42641e-08
1.31283e-08
1.3374e-08
1.39416e-08
1.46739e-08
1.54985e-08
1.64077e-08
1.73928e-08
1.84493e-08
1.95821e-08
2.07963e-08
2.20879e-08
2.34352e-08
2.47932e-08
2.60956e-08
2.72653e-08
2.82319e-08
2.8948e-08
2.93973e-08
2.95925e-08
2.95734e-08
2.93603e-08
2.90133e-08
2.86002e-08
2.81634e-08
2.77303e-08
2.73203e-08
2.69463e-08
2.66175e-08
2.63382e-08
2.61091e-08
2.59285e-08
2.57934e-08
2.56979e-08
2.56362e-08
2.56139e-08
2.56187e-08
2.56189e-08
2.56526e-08
2.56363e-08
2.58701e-08
2.50579e-08
9.16828e-09
9.33535e-09
9.72995e-09
1.02401e-08
1.08303e-08
1.14992e-08
1.22247e-08
1.29753e-08
1.37239e-08
1.44557e-08
1.51744e-08
1.59043e-08
1.66849e-08
1.75611e-08
1.85724e-08
1.97428e-08
2.10754e-08
2.25493e-08
2.41238e-08
2.57365e-08
2.73462e-08
2.88869e-08
3.03122e-08
3.15587e-08
3.25996e-08
3.34291e-08
3.40511e-08
3.4475e-08
3.47155e-08
3.47893e-08
3.47138e-08
3.45056e-08
3.41849e-08
3.37633e-08
3.32641e-08
3.26859e-08
3.20566e-08
3.13623e-08
3.07339e-08
2.96556e-08
3.06126e-08
6.42675e-09
6.50756e-09
6.70621e-09
6.94364e-09
7.22789e-09
7.60035e-09
8.08535e-09
8.6885e-09
9.39331e-09
1.01556e-08
1.09064e-08
1.15643e-08
1.20551e-08
1.23305e-08
1.23812e-08
1.2236e-08
1.19495e-08
1.15848e-08
1.11948e-08
1.08264e-08
1.04683e-08
1.01258e-08
9.79433e-09
9.49222e-09
9.22184e-09
8.98504e-09
8.78756e-09
8.63772e-09
8.54161e-09
8.50139e-09
8.51599e-09
8.58466e-09
8.70554e-09
8.8771e-09
9.10053e-09
9.37416e-09
9.68013e-09
1.00426e-08
1.03898e-08
1.10071e-08
1.06634e-08
4.59395e-09
4.67331e-09
4.79871e-09
4.87563e-09
4.90021e-09
4.9072e-09
4.92746e-09
4.99205e-09
5.13829e-09
5.4112e-09
5.86267e-09
6.54643e-09
7.50913e-09
8.77898e-09
1.03555e-08
1.22032e-08
1.42522e-08
1.64059e-08
1.85597e-08
2.05931e-08
2.24766e-08
2.41756e-08
2.56229e-08
2.67963e-08
2.77154e-08
2.84108e-08
2.89051e-08
2.92451e-08
2.94364e-08
2.95227e-08
2.95261e-08
2.94492e-08
2.92961e-08
2.9064e-08
2.87642e-08
2.83993e-08
2.79893e-08
2.75085e-08
2.70488e-08
2.636e-08
2.65169e-08
3.382e-09
3.50127e-09
3.68812e-09
3.85067e-09
3.9419e-09
3.94549e-09
3.85643e-09
3.68889e-09
3.47698e-09
3.26637e-09
3.10362e-09
3.02727e-09
3.06123e-09
3.21144e-09
3.46555e-09
3.79545e-09
4.16273e-09
4.52635e-09
4.85106e-09
5.11364e-09
5.29247e-09
5.37937e-09
5.3354e-09
5.20485e-09
5.02154e-09
4.80622e-09
4.5865e-09
4.40838e-09
4.31219e-09
4.28427e-09
4.2892e-09
4.31214e-09
4.34954e-09
4.39892e-09
4.45847e-09
4.52272e-09
4.59626e-09
4.65206e-09
4.7876e-09
4.58519e-09
5.74938e-09
2.50699e-09
2.48765e-09
2.65541e-09
3.22554e-09
4.41023e-09
6.3284e-09
8.95411e-09
1.21354e-08
1.56419e-08
1.92126e-08
2.25956e-08
2.55763e-08
2.79991e-08
2.97732e-08
3.08728e-08
3.13284e-08
3.12142e-08
3.06292e-08
2.9683e-08
2.84697e-08
2.7097e-08
2.58959e-08
2.46721e-08
2.35055e-08
2.24202e-08
2.14101e-08
2.05008e-08
1.95512e-08
1.85418e-08
1.75594e-08
1.66249e-08
1.57336e-08
1.48681e-08
1.40054e-08
1.31416e-08
1.22693e-08
1.13764e-08
1.04569e-08
9.45239e-09
8.81333e-09
6.70834e-09
6691.78
4197.9
2450.78
1616.49
1151.46
842.394
617.212
446.319
314.868
214.144
138.125
82.7494
44.6935
20.8145
7.83769
2.15383
0.346289
0.0215545
2.21338e-05
0.00045856
1.97652e-05
8.52874e-08
9.01078e-07
2.81389e-06
4.76955e-06
4.51189e-06
3.16918e-06
2.2637e-06
1.79499e-06
1.48393e-06
1.21751e-06
9.76849e-07
7.66764e-07
5.90389e-07
4.46834e-07
3.33186e-07
2.46107e-07
1.81055e-07
1.33734e-07
9.97999e-08
7.57444e-08
5.87535e-08
4.6644e-08
3.78093e-08
3.11203e-08
2.65382e-08
2.2418e-08
1.83012e-08
1.47998e-08
1.19338e-08
9.54933e-09
7.58189e-09
5.95357e-09
4.64039e-09
3.59042e-09
2.76808e-09
2.12379e-09
1.74289e-09
1.32312e-09
1.04865e-09
8.80148e-10
7.75822e-10
7.31398e-10
7.22425e-10
7.57343e-10
8.24165e-10
9.12883e-10
1.01313e-09
1.14334e-09
1.25782e-09
1.45202e-09
1.49235e-09
1.89088e-09
1.70265e-09
1477.1
2799.69
2348.66
1741.09
1308.2
1007.84
786.476
613.614
473.838
359.228
264.89
187.793
126.105
78.6033
44.2084
21.5216
8.46803
2.44951
0.433695
0.0336742
0.000214527
0.000295145
5.53835e-05
1.04463e-06
5.28115e-08
1.25896e-06
2.25625e-06
2.68135e-06
2.28483e-06
1.68876e-06
1.27776e-06
9.98207e-07
7.87228e-07
6.15536e-07
4.72429e-07
3.54883e-07
2.6179e-07
1.90711e-07
1.38478e-07
1.0124e-07
7.52047e-08
5.7169e-08
4.46056e-08
3.56947e-08
2.89842e-08
2.55886e-08
2.15903e-08
1.80828e-08
1.48787e-08
1.21216e-08
9.79094e-09
7.85822e-09
6.23443e-09
4.90791e-09
3.83189e-09
2.97859e-09
2.30445e-09
1.74915e-09
1.27075e-09
1.00758e-09
8.49914e-10
7.54528e-10
7.15365e-10
7.12734e-10
7.52744e-10
8.24185e-10
9.15763e-10
1.01776e-09
1.14862e-09
1.26518e-09
1.45593e-09
1.50658e-09
1.88838e-09
1.73124e-09
83.665
350.145
740.307
862.972
825.98
739.533
647.57
560.5
478.911
402.479
331.153
265.239
205.327
152.149
106.526
69.2018
40.5566
20.641
8.58658
2.66753
0.532715
0.0532268
0.00093661
1.22779e-05
1.00371e-05
1.88143e-09
1.99445e-09
5.67252e-07
1.18504e-06
1.5478e-06
1.56609e-06
1.23394e-06
9.05097e-07
6.63808e-07
4.94993e-07
3.70544e-07
2.75301e-07
2.02043e-07
1.46534e-07
1.05705e-07
7.66087e-08
5.64985e-08
4.28156e-08
3.35047e-08
2.68869e-08
2.23484e-08
1.91636e-08
1.6477e-08
1.38196e-08
1.13335e-08
9.17081e-09
7.37217e-09
5.87032e-09
4.63065e-09
3.62061e-09
2.8139e-09
2.18922e-09
1.5475e-09
1.21007e-09
9.70131e-10
8.20589e-10
7.35357e-10
7.01776e-10
7.07876e-10
7.53133e-10
8.27556e-10
9.21411e-10
1.02515e-09
1.15653e-09
1.27532e-09
1.46393e-09
1.5257e-09
1.88844e-09
1.76352e-09
497.61
204.962
70.4122
99.7324
172.268
230.638
267.287
286.77
292.406
286.466
270.92
247.836
219.235
187.025
153.068
119.3
87.4919
59.4573
36.542
19.5824
8.68226
2.94982
0.678314
0.0888201
0.00368874
7.03496e-11
0.000205496
5.02222e-07
3.39893e-08
5.13685e-08
4.98462e-07
8.08245e-07
9.5753e-07
8.48491e-07
6.31912e-07
4.40155e-07
3.06027e-07
2.14538e-07
1.51556e-07
1.08215e-07
7.80782e-08
5.6972e-08
4.22252e-08
3.20297e-08
2.50777e-08
1.96309e-08
1.61958e-08
1.38777e-08
1.18376e-08
9.82714e-09
7.96205e-09
6.36835e-09
5.05001e-09
3.96623e-09
3.08836e-09
2.38898e-09
1.84361e-09
1.46321e-09
1.16001e-09
9.34566e-10
7.92403e-10
7.17222e-10
6.91308e-10
7.06162e-10
7.56555e-10
8.33087e-10
9.2842e-10
1.0339e-09
1.16606e-09
1.28774e-09
1.47517e-09
1.54778e-09
1.89226e-09
1.79499e-09
729.902
619.614
394.428
196.862
78.4098
27.7719
18.9421
32.6036
56.541
82.8771
106.61
124.821
135.973
139.501
135.584
125.162
109.557
90.649
70.3254
50.4295
32.7382
18.6528
8.91916
3.35189
0.901497
0.146682
0.0106057
2.52635e-05
1.33494e-09
1.46881e-06
6.82889e-07
1.85771e-07
8.72848e-08
2.90623e-07
4.26049e-07
4.81417e-07
4.16596e-07
2.96372e-07
1.9453e-07
1.25466e-07
8.18994e-08
5.55655e-08
3.97238e-08
2.97549e-08
2.32045e-08
1.80696e-08
1.43944e-08
1.1991e-08
1.02488e-08
8.68264e-09
7.1672e-09
5.79013e-09
4.6207e-09
3.65118e-09
2.86068e-09
2.22599e-09
1.72435e-09
1.37079e-09
1.09813e-09
8.95321e-10
7.63687e-10
6.98714e-10
6.82579e-10
7.06321e-10
7.61504e-10
8.39637e-10
9.35957e-10
1.0432e-09
1.17631e-09
1.30159e-09
1.48847e-09
1.57154e-09
1.8993e-09
1.82589e-09
803.329
790.71
696.441
560.451
410.568
272.755
163.12
85.1633
36.3252
11.3816
4.38912
9.70703
22.4131
38.2994
53.8321
66.3787
74.1729
76.5244
73.4991
65.811
54.7401
41.9123
29.0697
17.8045
9.28668
3.9096
1.2332
0.255933
0.0285611
0.000647657
4.81836e-06
1.51834e-05
1.99462e-08
8.72505e-09
7.03095e-09
8.3913e-08
1.22347e-07
1.73208e-07
2.029e-07
1.76483e-07
1.22726e-07
7.66616e-08
4.65925e-08
2.92944e-08
2.01501e-08
1.50476e-08
1.19387e-08
9.96882e-09
8.61767e-09
7.46978e-09
6.31057e-09
5.16196e-09
4.13406e-09
3.27641e-09
2.5854e-09
2.03277e-09
1.59188e-09
1.26421e-09
1.02578e-09
8.51521e-10
7.35198e-10
6.80046e-10
6.74346e-10
7.07683e-10
7.68114e-10
8.47955e-10
9.45156e-10
1.0541e-09
1.18815e-09
1.31726e-09
1.50367e-09
1.59652e-09
1.90901e-09
1.85773e-09
729.705
692.133
642.867
592.208
533.553
465.535
389.281
308.651
229.59
158.176
98.8343
53.994
23.8723
7.13713
1.46761
4.01561
11.8053
21.9595
31.9371
39.6625
43.8125
43.8798
40.1213
33.4363
25.1623
16.7882
9.65479
4.593
1.70146
0.447038
0.0735491
0.00544959
4.4887e-06
0.000110159
9.77227e-07
1.60196e-09
3.72929e-08
5.31655e-08
4.07199e-08
3.64938e-08
5.01524e-08
6.62913e-08
6.2607e-08
4.48424e-08
2.81101e-08
1.70536e-08
1.07986e-08
7.62194e-09
6.13612e-09
5.44336e-09
4.96491e-09
4.38537e-09
3.67588e-09
2.95086e-09
2.31974e-09
1.81719e-09
1.42974e-09
1.14544e-09
9.44761e-10
8.02443e-10
7.07152e-10
6.62786e-10
6.66228e-10
7.09082e-10
7.76342e-10
8.59284e-10
9.57827e-10
1.06837e-09
1.2031e-09
1.33575e-09
1.52136e-09
1.62259e-09
1.92104e-09
1.89114e-09
337.722
307.313
282.894
271.329
267.608
269.631
273.117
273.205
265.467
247.424
218.949
182.302
141.409
100.812
64.561
35.7271
15.675
4.36071
0.572795
2.44223
7.82601
14.5886
20.7859
24.9357
26.2272
24.5772
20.5582
15.2189
9.7826
5.30032
2.31173
0.769027
0.172803
0.0228879
0.000924728
3.17071e-14
9.59747e-05
8.76318e-06
3.13166e-09
2.16889e-08
2.78423e-08
1.21204e-08
8.86208e-09
8.8065e-09
1.53259e-08
1.89203e-08
1.57745e-08
1.07205e-08
6.81144e-09
4.5791e-09
3.47748e-09
2.94526e-09
2.63664e-09
2.34139e-09
1.99762e-09
1.63802e-09
1.31328e-09
1.05723e-09
8.75793e-10
7.54678e-10
6.7976e-10
6.47958e-10
6.58762e-10
7.08795e-10
7.83773e-10
8.72651e-10
9.74726e-10
1.08763e-09
1.22291e-09
1.35837e-09
1.5426e-09
1.65008e-09
1.93536e-09
1.92604e-09
33.7374
30.235
27.2588
26.392
27.1037
29.5895
34.5459
42.4084
53.3255
66.9553
82.1018
96.5727
107.521
112.232
108.977
97.7662
80.2911
59.6357
39.1441
21.7447
9.25479
2.24937
0.232503
1.95411
5.82782
10.2321
13.7537
15.4442
14.9795
12.6685
9.28546
5.80376
3.00509
1.23301
0.375128
0.0765627
0.00866908
0.000202247
1.76717e-05
6.55325e-05
1.61347e-06
1.53532e-11
6.32662e-10
5.34026e-09
4.76327e-09
1.32434e-08
8.25141e-09
2.97624e-09
4.73189e-09
5.68094e-09
4.74592e-09
3.41457e-09
2.42495e-09
1.81776e-09
1.45739e-09
1.22827e-09
1.06179e-09
9.23789e-10
8.08236e-10
7.20062e-10
6.64096e-10
6.43037e-10
6.59119e-10
7.13125e-10
7.94152e-10
8.89843e-10
9.969e-10
1.11254e-09
1.24782e-09
1.38492e-09
1.5675e-09
1.67945e-09
1.9529e-09
1.96319e-09
0.273755
0.204954
0.149574
0.124998
0.115731
0.119682
0.149419
0.229997
0.416335
0.828089
1.69895
3.4175
6.50882
11.4852
18.5507
27.2581
36.2964
43.7397
47.6344
46.7329
41.0593
31.9208
21.4156
11.7963
4.70927
0.890297
0.179522
1.74556
4.44194
7.09082