/*--------------------------------*- C++ -*----------------------------------*\
| =========                 |                                                 |
| \\      /  F ield         | OpenFOAM: The Open Source CFD Toolbox           |
|  \\    /   O peration     | Version:  2312                                  |
|   \\  /    A nd           | Website:  www.openfoam.com                      |
|    \\/     M anipulation  |                                                 |
\*---------------------------------------------------------------------------*/
FoamFile
{
    version     2.0;
    format      ascii;
    arch        "LSB;label=32;scalar=64";
    class       volScalarField;
    location    "200";
    object      turbulenceProperties:L;
}
// * * * * * * * * * * * * * * * * * * * * * * * * * * * * * * * * * * * * * //

dimensions      [0 1 0 0 0 0 0];

internalField   nonuniform List<scalar> 
11040
(
0.000220413
0.000201268
0.000227782
0.000293953
0.000434098
0.000792191
0.000994435
0.00108493
0.00119211
0.00145684
0.00151083
0.00150077
0.00144868
0.00136373
0.00130581
0.00127266
0.00125418
0.00124369
0.00123832
0.00123714
0.00123987
0.00124701
0.00125727
0.00126846
0.00128044
0.00129382
0.00130877
0.00132533
0.00134358
0.00136377
0.00138624
0.00141148
0.00144011
0.00147255
0.00150533
0.00149645
0.00142741
0.00150856
0.00165866
0.00186899
0.00293307
0.000495291
0.000448047
0.000402895
0.000411102
0.000423198
0.000567384
0.000752033
0.000996638
0.00134011
0.00172966
0.00204788
0.00230945
0.00256158
0.00281847
0.00307233
0.00330451
0.00350022
0.00365784
0.00378784
0.00390604
0.00402047
0.00412194
0.00421753
0.00430934
0.00439179
0.0044644
0.00452992
0.00459088
0.00464777
0.00470074
0.0047498
0.00479547
0.00483864
0.00488038
0.00492096
0.00495443
0.00497768
0.00503731
0.00512178
0.0052991
0.00506754
0.000654869
0.000753367
0.000810579
0.000959475
0.00122039
0.000640784
0.000661004
0.000786866
0.000961912
0.0011887
0.00148752
0.00183068
0.00219239
0.00255299
0.00289376
0.00320353
0.00348584
0.00375652
0.00403419
0.00433018
0.00463757
0.00493044
0.00518746
0.00541817
0.00563058
0.00583042
0.00602237
0.00620798
0.0063865
0.00655646
0.0067169
0.00686729
0.00700749
0.00713783
0.00725738
0.00736266
0.0074507
0.00755496
0.0076766
0.00798469
0.00816727
0.000779081
0.000814488
0.00087745
0.000939022
0.00101994
0.00130995
0.00173451
0.001386
0.000912578
0.000864549
0.000915356
0.00101716
0.00119475
0.00147102
0.00184125
0.00228085
0.00275959
0.00324781
0.00372071
0.00416152
0.00456456
0.00492516
0.00525458
0.00557829
0.00590381
0.00622749
0.00654316
0.00684509
0.00712986
0.00739706
0.00764849
0.00788668
0.0081137
0.00833129
0.00853905
0.00873607
0.00892067
0.00910936
0.0092995
0.00967125
0.00983768
0.000935955
0.000952896
0.000993307
0.00106624
0.00113961
0.00122427
0.00146238
0.00218097
0.00398329
0.0018745
0.00726403
0.00621185
0.0154907
0.00959338
0.00354632
0.00169872
0.00180068
0.00222626
0.00274143
0.00330086
0.003886
0.0044419
0.00494161
0.00539505
0.00580663
0.00618076
0.00652714
0.0068567
0.00717871
0.00749942
0.00782156
0.00814464
0.00846588
0.00878259
0.00909128
0.00938974
0.0096759
0.00996295
0.0102431
0.0106467
0.0108487
0.00113421
0.00113076
0.00114993
0.00120005
0.00126703
0.00132467
0.00137314
0.00145532
0.00161112
0.00195127
0.00232767
0.00284051
0.00344963
0.00432712
0.00827059
0.0101039
1.9468
0.00173483
0.00248458
0.00609659
0.00417216
0.0045127
0.00456532
0.00488781
0.00530005
0.00573468
0.00616925
0.00659192
0.00699641
0.00738009
0.00774385
0.0080912
0.00842752
0.00876036
0.00909598
0.00943951
0.00979222
0.0101659
0.0105465
0.0110047
0.0113184
0.00136124
0.00134408
0.00133104
0.00134238
0.00138062
0.0014383
0.00150166
0.00156464
0.00163544
0.00172116
0.00185182
0.00200199
0.00218278
0.00237199
0.00254344
0.00271203
0.00295456
0.00352027
0.00480569
2.47358
0.00323829
0.0217841
0.00421156
0.00269686
0.00306781
0.00508105
0.00666388
0.00663097
0.00670065
0.00694404
0.0072741
0.00764334
0.00803002
0.00842324
0.008817
0.00921015
0.0096022
0.0100083
0.0104184
0.0108846
0.0112572
0.00162542
0.00159976
0.00156657
0.00155327
0.00156584
0.00159889
0.00164599
0.00170461
0.00177781
0.00186983
0.00198721
0.00213482
0.00231372
0.0025125
0.00270934
0.00288629
0.00303426
0.00318002
0.00329948
0.00349596
0.00393795
0.00492654
0.00640769
0.0832017
0.00631621
0.00335775
0.0114431
0.00335971
0.00511416
0.00360201
0.0049085
0.006635
0.00736769
0.00765771
0.0079988
0.00841344
0.00886559
0.009358
0.00985155
0.0104015
0.0108625
0.00193021
0.00189933
0.00185164
0.00181372
0.00179748
0.00180345
0.00182838
0.00187008
0.00192979
0.00201123
0.0021181
0.00225388
0.00241935
0.00260799
0.00280629
0.00299942
0.00318033
0.00334601
0.00349924
0.00362625
0.00376115
0.0039666
0.00421504
0.00458995
0.00502498
0.00582639
0.00715039
0.0121066
0.247062
0.00881672
0.00561385
0.00375106
0.016482
0.00554827
0.00425917
0.00509638
0.00649017
0.00750434
0.0082843
0.00906616
0.00977432
0.00228495
0.00225064
0.00219358
0.00213772
0.00209744
0.00207767
0.00207826
0.00209773
0.00213643
0.00219675
0.00228145
0.00239306
0.00253236
0.00269535
0.00287316
0.00305495
0.00323267
0.00340245
0.00356413
0.00371575
0.00385672
0.0039903
0.00412797
0.00424842
0.00438612
0.00452729
0.00472426
0.00490731
0.00538263
0.00596278
0.00691253
0.0090972
0.0148401
0.0244209
0.0194989
0.00932898
0.00488358
0.00506408
0.00592523
0.00472434
0.00644611
0.00269905
0.00266212
0.00259868
0.00252927
0.00246815
0.00242294
0.00239698
0.00239123
0.00240631
0.00244367
0.00250459
0.0025908
0.00270314
0.00283915
0.00299297
0.00315657
0.00332275
0.00348705
0.00364722
0.00380296
0.00395421
0.00409846
0.00423663
0.00436928
0.00449292
0.00460254
0.00470077
0.00478734
0.00486003
0.0049496
0.00505665
0.00523429
0.00554098
0.00614082
0.00711643
0.0092696
0.0199416
0.0808397
0.0409752
0.0223743
0.00518194
0.00318467
0.00314567
0.00307754
0.00299807
0.00292028
0.00285282
0.00280135
0.00276893
0.00275744
0.00276832
0.00280262
0.00286128
0.00294486
0.00305185
0.00317851
0.00331932
0.00346845
0.00362137
0.00377506
0.00392812
0.00407926
0.00422515
0.0043648
0.0045004
0.0046301
0.00475126
0.00486169
0.00496223
0.00505169
0.00513115
0.00520142
0.00526553
0.00532475
0.00537821
0.00546053
0.00559539
0.00588863
0.00665961
0.00836693
0.0117218
0.0532915
0.00375594
0.00371512
0.00364302
0.00355533
0.00346364
0.00337652
0.00330083
0.00324142
0.00320148
0.00318347
0.00318857
0.00321775
0.00327118
0.00334786
0.00344547
0.00356031
0.003688
0.00382455
0.00396684
0.00411294
0.00426054
0.00440465
0.00454301
0.00467744
0.00480725
0.00493092
0.00504737
0.00515676
0.00525972
0.0053567
0.00544831
0.00553488
0.00561691
0.00569158
0.0057592
0.00581896
0.00587317
0.00592509
0.00605091
0.00617727
0.00676936
0.00442995
0.00438751
0.00431161
0.00421664
0.00411291
0.00400851
0.0039108
0.0038256
0.0037573
0.00370917
0.00368319
0.0036805
0.00370177
0.00374626
0.00381247
0.00389799
0.00399974
0.00411453
0.00423955
0.0043728
0.00451163
0.00465
0.00478468
0.00491682
0.0050457
0.00517022
0.00528974
0.00540416
0.0055139
0.00561961
0.0057221
0.0058223
0.00592113
0.00601955
0.00611796
0.00621535
0.00631105
0.00640018
0.00648119
0.00656338
0.00661529
0.00522754
0.00518332
0.00510328
0.00500127
0.0048863
0.00476592
0.00464765
0.00453788
0.00444167
0.0043632
0.00430516
0.00426931
0.00425675
0.00426759
0.00430086
0.00435491
0.00442765
0.00451674
0.00461983
0.00473512
0.00485997
0.00498811
0.00511576
0.00524349
0.00537015
0.00549476
0.00561672
0.0057358
0.00585213
0.00596609
0.00607829
0.00618946
0.00630041
0.00641222
0.00652597
0.00664233
0.0067622
0.00688697
0.00701525
0.00715844
0.00726877
0.00617277
0.00612619
0.00604156
0.00593265
0.00580685
0.00567119
0.00553338
0.00540018
0.0052771
0.00516888
0.00507896
0.00500961
0.00496248
0.00493836
0.00493728
0.00495819
0.00499964
0.00506004
0.00513757
0.00523074
0.00533726
0.00545106
0.00556816
0.00568861
0.00581082
0.00593366
0.00605649
0.00617894
0.00630098
0.00642274
0.00654458
0.00666707
0.00679079
0.00691665
0.00704558
0.00717818
0.00731538
0.00745865
0.00760911
0.00777412
0.00792619
0.00728592
0.00723697
0.00714769
0.00703203
0.0068955
0.00674466
0.00658762
0.00643154
0.00628223
0.00614483
0.00602332
0.0059205
0.00583847
0.00577873
0.00574201
0.00572835
0.0057369
0.00576641
0.00581575
0.00588384
0.00596897
0.00606558
0.00616961
0.00628067
0.00639676
0.00651656
0.00663927
0.00676446
0.0068918
0.00702123
0.00715288
0.00728712
0.00742426
0.00756505
0.00771019
0.00786009
0.00801534
0.00817705
0.00834631
0.00852725
0.00870009
0.00854594
0.00849504
0.00840082
0.00827786
0.00812982
0.00796307
0.00778639
0.00760747
0.00743249
0.00726688
0.00711505
0.00698012
0.00686456
0.00677031
0.0066987
0.00665034
0.0066254
0.00662342
0.00664348
0.00668498
0.00674692
0.00682454
0.0069139
0.00701412
0.00712286
0.00723856
0.00736025
0.00748725
0.00761905
0.00775541
0.00789622
0.00804164
0.00819176
0.0083471
0.00850819
0.00867512
0.00884804
0.00902791
0.00921533
0.00941258
0.00960496
0.00990912
0.00985639
0.00975679
0.00962611
0.00946598
0.0092827
0.00908596
0.00888423
0.00868415
0.00849155
0.00831122
0.0081466
0.00800044
0.00787507
0.00777221
0.00769301
0.007638
0.00760737
0.00760089
0.00761805
0.00765823
0.00771758
0.00779248
0.00788164
0.00798246
0.00809322
0.00821274
0.00834013
0.00847468
0.00861593
0.0087636
0.00891761
0.00907782
0.00924454
0.00941814
0.00959843
0.00978511
0.00997914
0.0101809
0.010391
0.0105995
0.011357
0.011303
0.0111991
0.0110618
0.0108905
0.0106915
0.0104757
0.0102524
0.0100288
0.00981123
0.00960479
0.0094132
0.00923942
0.00908602
0.008955
0.0088478
0.00876537
0.0087083
0.00867686
0.0086712
0.00869115
0.00873342
0.0087946
0.00887317
0.00896639
0.00907235
0.0091897
0.0093173
0.00945426
0.00959982
0.00975351
0.00991506
0.010084
0.0102604
0.0104446
0.0106359
0.0108337
0.011039
0.011252
0.0114725
0.0116919
0.0129011
0.0128472
0.0127402
0.012597
0.0124148
0.0122003
0.0119654
0.0117206
0.0114737
0.0112316
0.0109998
0.0107824
0.0105825
0.010403
0.0102461
0.0101135
0.0100064
0.00992573
0.00987202
0.0098458
0.00984741
0.00987435
0.00992341
0.00999262
0.0100791
0.0101808
0.0102964
0.0104243
0.0105636
0.0107132
0.0108725
0.011041
0.011218
0.0114033
0.0115969
0.0117983
0.0120061
0.0122215
0.0124443
0.012675
0.0129007
0.014551
0.0144982
0.0143888
0.01424
0.0140471
0.0138168
0.0135627
0.0132964
0.0130264
0.0127602
0.0125039
0.0122618
0.0120375
0.0118338
0.0116532
0.0114976
0.0113684
0.0112666
0.0111932
0.0111487
0.0111341
0.0111472
0.0111853
0.0112461
0.0113266
0.0114247
0.0115387
0.0116671
0.0118085
0.011962
0.0121264
0.0123013
0.0124855
0.0126788
0.0128811
0.0130915
0.0133082
0.0135328
0.0137644
0.0140056
0.0142337
0.0163172
0.0162666
0.0161557
0.0160016
0.0157977
0.0155513
0.0152776
0.0149892
0.0146958
0.0144054
0.0141247
0.0138584
0.0136102
0.0133834
0.0131806
0.0130037
0.0128543
0.0127338
0.012643
0.0125829
0.0125545
0.0125561
0.012585
0.0126388
0.0127145
0.01281
0.0129233
0.0130529
0.0131971
0.0133546
0.0135243
0.0137054
0.0138966
0.0140976
0.014308
0.0145269
0.014752
0.0149852
0.0152249
0.015477
0.0157038
0.018211
0.0181635
0.0180516
0.0178922
0.0176768
0.0174137
0.0171196
0.0168086
0.0164912
0.0161763
0.0158711
0.0155809
0.0153095
0.0150606
0.0148368
0.0146402
0.0144726
0.0143352
0.0142293
0.014156
0.0141161
0.0141083
0.0141298
0.0141782
0.0142505
0.0143444
0.0144579
0.0145891
0.0147363
0.0148979
0.0150729
0.01526
0.015458
0.0156663
0.0158844
0.0161113
0.0163443
0.0165855
0.0168328
0.017096
0.0173182
0.0202443
0.0202007
0.0200883
0.0199233
0.0196958
0.019415
0.0190996
0.018765
0.0184228
0.0180828
0.0177527
0.0174384
0.017144
0.0168734
0.0166294
0.0164142
0.0162297
0.0160772
0.015958
0.0158732
0.0158239
0.0158088
0.0158248
0.0158696
0.0159399
0.0160334
0.016148
0.0162816
0.0164324
0.016599
0.0167795
0.0169732
0.0171783
0.017394
0.01762
0.0178549
0.0180959
0.0183453
0.0186001
0.0188751
0.0190902
0.0224303
0.0223913
0.0222786
0.0221073
0.0218666
0.0215669
0.0212288
0.0208694
0.0205013
0.0201352
0.0197797
0.019441
0.0191236
0.0188316
0.018568
0.0183352
0.018135
0.0179688
0.017838
0.0177437
0.017687
0.0176664
0.0176787
0.0177212
0.0177908
0.0178849
0.0180016
0.0181386
0.0182939
0.0184658
0.0186523
0.0188527
0.0190648
0.019288
0.0195217
0.0197645
0.0200133
0.0202706
0.0205328
0.0208196
0.0210257
0.0247831
0.0247494
0.0246361
0.0244577
0.0242023
0.023882
0.0235195
0.0231336
0.0227382
0.0223449
0.021963
0.0215993
0.0212586
0.0209453
0.0206624
0.0204125
0.0201974
0.0200187
0.0198775
0.0197752
0.0197127
0.0196882
0.0196982
0.0197398
0.0198099
0.019906
0.0200259
0.0201672
0.0203276
0.0205051
0.0206982
0.0209055
0.0211249
0.021356
0.0215977
0.0218487
0.0221056
0.0223712
0.022641
0.02294
0.0231365
0.0273185
0.0272903
0.0271762
0.026989
0.026717
0.0263739
0.0259847
0.0255703
0.0251458
0.0247238
0.0243143
0.0239247
0.0235602
0.0232253
0.0229233
0.0226568
0.0224275
0.0222371
0.0220867
0.0219775
0.0219106
0.0218837
0.0218927
0.0219349
0.0220069
0.0221061
0.0222301
0.0223762
0.0225423
0.0227262
0.0229262
0.0231404
0.0233678
0.0236067
0.0238564
0.0241156
0.0243807
0.0246546
0.0249321
0.025243
0.0254295
0.0300538
0.0300313
0.0299153
0.0297172
0.0294258
0.0290571
0.0286386
0.028193
0.0277371
0.0272845
0.026846
0.0264293
0.0260403
0.0256834
0.0253621
0.025079
0.0248359
0.0246345
0.0244757
0.0243608
0.0242905
0.0242624
0.0242715
0.0243151
0.0243897
0.0244926
0.0246211
0.0247728
0.0249451
0.0251358
0.0253433
0.0255652
0.0258005
0.0260475
0.0263057
0.0265734
0.026847
0.0271294
0.0274146
0.0277373
0.0279145
0.0330084
0.0329914
0.0328719
0.0326598
0.0323456
0.0319476
0.0314962
0.0310163
0.0305263
0.0300407
0.0295712
0.0291261
0.0287114
0.0283318
0.0279908
0.0276911
0.0274345
0.0272224
0.0270558
0.0269358
0.0268632
0.0268347
0.0268447
0.0268906
0.0269685
0.0270758
0.0272097
0.0273673
0.0275462
0.0277441
0.0279588
0.0281886
0.0284315
0.0286868
0.0289533
0.0292293
0.0295112
0.0298018
0.0300948
0.0304286
0.0305968
0.0362041
0.0361918
0.0360662
0.0358362
0.0354946
0.0350626
0.0345739
0.0340558
0.0335282
0.0330069
0.0325041
0.0320287
0.0315869
0.0311836
0.0308225
0.0305058
0.0302356
0.0300129
0.0298388
0.0297141
0.0296395
0.0296111
0.0296227
0.0296714
0.0297535
0.0298657
0.0300051
0.0301691
0.0303547
0.0305597
0.0307819
0.0310197
0.0312702
0.0315339
0.0318086
0.0320928
0.0323831
0.032682
0.0329829
0.033327
0.033488
0.0396649
0.039656
0.0395209
0.0392676
0.0388926
0.0384209
0.0378897
0.0373287
0.0367594
0.0361988
0.0356599
0.035152
0.0346814
0.0342532
0.0338708
0.0335366
0.0332523
0.0330191
0.0328375
0.0327084
0.0326321
0.0326042
0.0326174
0.0326688
0.0327547
0.0328715
0.0330164
0.0331861
0.0333781
0.03359
0.0338194
0.0340649
0.0343227
0.0345936
0.0348758
0.0351676
0.0354657
0.0357719
0.0360797
0.0364325
0.0365862
0.0434181
0.0434105
0.043261
0.0429773
0.0425616
0.0420433
0.041463
0.0408533
0.0402376
0.0396336
0.0390553
0.0385121
0.0380105
0.0375556
0.0371508
0.0367981
0.0364992
0.0362548
0.0360654
0.0359316
0.0358536
0.0358261
0.0358409
0.0358951
0.0359849
0.0361066
0.036257
0.0364329
0.0366314
0.0368501
0.0370867
0.0373392
0.0376044
0.0378819
0.0381716
0.0384709
0.0387763
0.0390898
0.0394044
0.039765
0.0399149
0.0474947
0.0474852
0.0473145
0.0469915
0.0465261
0.0459524
0.0453154
0.0446503
0.0439823
0.0433302
0.0427084
0.0421266
0.0415914
0.0411077
0.0406786
0.0403061
0.0399912
0.0397348
0.0395367
0.0393972
0.0393164
0.0392885
0.0393037
0.0393597
0.0394522
0.0395771
0.0397312
0.0399112
0.0401142
0.0403375
0.0405788
0.0408363
0.041106
0.0413879
0.0416829
0.0419871
0.0422974
0.0426154
0.0429342
0.0432999
0.0434421
0.0519293
0.0519136
0.0517126
0.0513391
0.0508126
0.0501735
0.0494708
0.0487427
0.0480158
0.0473099
0.0466398
0.0460153
0.0454431
0.0449278
0.0444721
0.0440778
0.0437455
0.0434756
0.0432677
0.0431217
0.0430377
0.043009
0.0430246
0.0430824
0.0431779
0.0433068
0.0434655
0.0436506
0.0438589
0.0440881
0.0443354
0.0445988
0.0448748
0.0451621
0.0454632
0.0457725
0.0460882
0.0464115
0.0467356
0.047105
0.0472495
0.0567611
0.0567332
0.0564901
0.056052
0.0554513
0.0547351
0.0539566
0.0531566
0.0523634
0.0515972
0.050873
0.050201
0.0495875
0.0490367
0.0485513
0.0481323
0.0477799
0.047494
0.0472735
0.0471181
0.047027
0.0469932
0.0470042
0.047058
0.0471503
0.0472765
0.0474327
0.0476157
0.0478226
0.04805
0.0482956
0.0485569
0.0488329
0.0491175
0.0494149
0.0497239
0.0500391
0.0503618
0.0506842
0.0510536
0.0511806
0.0620341
0.0619857
0.0616857
0.0611667
0.060477
0.0596708
0.0588051
0.0579232
0.0570548
0.0562206
0.0554359
0.0547103
0.0540501
0.0534592
0.0529396
0.0524922
0.0521167
0.0518125
0.0515783
0.051413
0.0513167
0.0512812
0.0512927
0.0513493
0.051446
0.0515779
0.0517406
0.0519305
0.0521436
0.0523771
0.0526281
0.0528945
0.0531751
0.053464
0.053764
0.054077
0.0543955
0.0547201
0.0550453
0.0554106
0.0555589
0.0677975
0.0677174
0.0673416
0.0667227
0.0659289
0.0650202
0.0640562
0.063082
0.062128
0.0612161
0.0603619
0.0595752
0.0588616
0.0582244
0.0576649
0.0571831
0.0567778
0.0564476
0.0561901
0.0560031
0.0558853
0.0558281
0.0558162
0.0558487
0.0559218
0.0560305
0.0561711
0.0563394
0.0565324
0.0567472
0.0569813
0.0572325
0.0574993
0.057775
0.0580627
0.0583649
0.0586725
0.0589874
0.0593001
0.0596639
0.0597528
0.0741069
0.0739807
0.0735059
0.0727656
0.0718512
0.0708279
0.0697564
0.0686815
0.0676333
0.0666335
0.0656985
0.064839
0.0640615
0.0633693
0.0627631
0.0622423
0.0618055
0.0614515
0.0611785
0.0609846
0.0608699
0.0608244
0.0608306
0.0608855
0.0609835
0.061118
0.0612827
0.0614733
0.0616856
0.0619165
0.0621634
0.0624236
0.0626962
0.0629736
0.0632603
0.0635598
0.0638637
0.0641712
0.0644813
0.064815
0.0649953
0.0810217
0.080835
0.0802384
0.0793571
0.0783054
0.0771522
0.0759594
0.0747734
0.0736241
0.0725314
0.0715092
0.0705674
0.0697126
0.0689493
0.0682789
0.0676996
0.0672071
0.0667961
0.0664606
0.066196
0.0659996
0.065864
0.0657727
0.0657285
0.0657292
0.0657703
0.0658485
0.0659608
0.0661042
0.0662757
0.0664724
0.0666909
0.066929
0.0671785
0.0674431
0.0677269
0.0680164
0.0683157
0.0686077
0.0689745
0.0689543
0.0885981
0.0883348
0.0876
0.0865741
0.0853874
0.0840998
0.0827703
0.081449
0.0801724
0.0789663
0.0778468
0.0768208
0.0758898
0.0750546
0.0743175
0.0736826
0.0731541
0.0727348
0.0724242
0.072218
0.072115
0.0720988
0.0721431
0.0722388
0.0723748
0.0725409
0.0727287
0.0729321
0.0731469
0.0733696
0.0735972
0.0738273
0.0740609
0.0742922
0.0745243
0.0747634
0.0750052
0.0752443
0.0754956
0.0757148
0.0760279
0.0968874
0.0965202
0.0956235
0.0944606
0.0931728
0.091797
0.0903699
0.0889281
0.087505
0.0861356
0.0848528
0.0836814
0.0826325
0.0817028
0.0808778
0.0801375
0.0794631
0.0788423
0.0782695
0.0777469
0.0772782
0.0768688
0.0765122
0.0762216
0.0760005
0.0758471
0.0757583
0.075731
0.0757604
0.075841
0.0759678
0.076136
0.0763389
0.0765741
0.0768291
0.0771113
0.0774135
0.0777343
0.0780341
0.0784931
0.0781969
0.105961
0.105471
0.10438
0.103053
0.101654
0.100215
0.0987652
0.0973198
0.0958808
0.0944495
0.0930374
0.0916705
0.0903885
0.0892391
0.0882662
0.0875008
0.0869546
0.0866204
0.0864773
0.0864913
0.0866478
0.0869058
0.087218
0.0875542
0.0878941
0.0882221
0.0885266
0.0887988
0.0890333
0.0892279
0.0893829
0.0894998
0.0895828
0.0896367
0.0896562
0.089652
0.0896518
0.0896223
0.0896366
0.0894334
0.0901495
0.115911
0.115389
0.1142
0.112751
0.111182
0.109529
0.107866
0.106271
0.104791
0.103439
0.102192
0.100999
0.0997962
0.0985272
0.0971578
0.0956847
0.094135
0.0925575
0.0910088
0.0895483
0.0882005
0.0870002
0.0859589
0.0850973
0.0844097
0.0838812
0.0834955
0.0832376
0.0830931
0.083049
0.0830941
0.0832192
0.0834137
0.0836729
0.0839851
0.0843541
0.0847651
0.0852304
0.0856627
0.086431
0.0857474
0.126676
0.126281
0.125335
0.12425
0.12301
0.121474
0.11961
0.117478
0.115209
0.112984
0.110987
0.109374
0.108243
0.107633
0.107523
0.107841
0.108481
0.109325
0.110265
0.111191
0.11213
0.113067
0.114011
0.114908
0.115741
0.116496
0.117145
0.11765
0.11798
0.118119
0.118068
0.117832
0.11742
0.116849
0.116125
0.115268
0.114346
0.1133
0.112342
0.110732
0.111614
0.137767
0.137178
0.136273
0.135733
0.135562
0.135514
0.135374
0.134934
0.133963
0.132241
0.129618
0.126092
0.121841
0.117173
0.112434
0.107912
0.103805
0.100217
0.0971733
0.0946802
0.0926311
0.0909589
0.0896463
0.0886484
0.0879041
0.0873612
0.0869853
0.0867314
0.0865901
0.0865268
0.0865243
0.0865807
0.0866936
0.0868661
0.0870916
0.0873701
0.0876883
0.088069
0.0884408
0.089013
0.088881
0.148729
0.147446
0.145542
0.143981
0.143141
0.143108
0.143927
0.145534
0.147703
0.150028
0.151957
0.152907
0.152481
0.150665
0.147824
0.144502
0.141203
0.138277
0.135903
0.134124
0.132976
0.132436
0.132708
0.133532
0.134735
0.136219
0.137822
0.139194
0.139964
0.140191
0.140151
0.139964
0.139662
0.139269
0.138801
0.138306
0.137749
0.137334
0.136352
0.137832
0.130252
0.160288
0.160598
0.157999
0.1505
0.139179
0.127164
0.116596
0.108062
0.101418
0.0963367
0.0925086
0.0896867
0.0876802
0.0863438
0.0855646
0.0852518
0.0853297
0.0857343
0.0864097
0.0873161
0.0884017
0.0894095
0.0904983
0.091601
0.0926901
0.0937647
0.0947878
0.0959184
0.0971982
0.0985302
0.0998867
0.101272
0.102715
0.104262
0.105934
0.107769
0.109825
0.112163
0.115031
0.117062
0.125328
0.00326634
0.00465551
0.00582675
0.00675406
0.0075188
0.00819396
0.00881151
0.009389
0.00992823
0.0104433
0.0109476
0.0114583
0.0119889
0.0125323
0.0131102
0.0137665
0.01431
0.015267
0.0233036
0.0152352
0.0170057
0.0885626
0.0387454
0.0276592
0.0245767
0.0248247
0.0269114
0.0292186
0.030966
0.0324914
0.0341511
0.0360853
0.0383335
0.0409194
0.0438705
0.0472116
0.0509276
0.0549908
0.0593181
0.0638216
0.0683776
0.0728608
0.0771887
0.0813489
0.0854062
0.0888752
0.0927037
0.097527
0.102844
0.10853
0.114749
0.121562
0.129136
0.137437
0.14654
0.156386
0.167095
0.17556
0.18808
0.199336
0.208259
0.214933
0.218125
0.2188
0.216233
0.211711
0.206369
0.201063
0.195077
0.190479
0.183763
0.182509
0.172023
0.176593
0.0062617
0.00644052
0.00725804
0.0080949
0.00885101
0.00951989
0.0101146
0.0106555
0.011157
0.0116288
0.0120802
0.0125218
0.012964
0.0134151
0.0138807
0.0143782
0.0148681
0.0153798
0.0157646
0.0162482
0.0181424
0.0203481
0.0137408
0.0391354
0.0964654
0.0340687
0.0293303
0.0282473
0.0292732
0.0314644
0.0337138
0.0358662
0.0380744
0.0405003
0.0432714
0.0464764
0.0501464
0.0542787
0.0588015
0.0635927
0.0685001
0.073361
0.0780562
0.0825282
0.0869383
0.0896887
0.09358
0.0978205
0.102708
0.108107
0.114035
0.120479
0.127656
0.135524
0.144174
0.153546
0.163719
0.175402
0.189988
0.201336
0.210087
0.216434
0.219337
0.21954
0.216563
0.21171
0.206206
0.200834
0.194853
0.190201
0.18364
0.182077
0.17208
0.17586
0.0149017
0.0121485
0.0108126
0.0108248
0.0112056
0.0116658
0.0121082
0.0125192
0.0129082
0.0132821
0.013644
0.0139983
0.0143508
0.0147092
0.0150777
0.0154651
0.0158626
0.0162824
0.0166966
0.0170571
0.0172151
0.0173394
0.0170752
0.0203493
0.0202201
0.314876
0.28774
0.0425768
0.0343592
0.0324299
0.0322858
0.034083
0.0367572
0.0397086
0.0427439
0.0459726
0.0495284
0.053511
0.0579806
0.0629097
0.0681816
0.0735757
0.0788591
0.0838455
0.0885871
0.0927772
0.0964118
0.100122
0.104622
0.10994
0.115916
0.122418
0.129592
0.137509
0.146233
0.155745
0.165833
0.180857
0.192327
0.203252
0.21194
0.217831
0.220392
0.219916
0.216535
0.211494
0.20589
0.200471
0.194518
0.189822
0.183388
0.181504
0.172079
0.17505
0.0113354
0.0154465
0.0207378
0.0197512
0.0177283
0.016762
0.0162996
0.0160844
0.0160128
0.016031
0.0161059
0.0162228
0.0163754
0.0165612
0.0167769
0.0170223
0.017289
0.0175827
0.0179007
0.0182246
0.0185211
0.0187424
0.0187454
0.0188557
0.0192458
0.661593
0.0170145
0.0496138
0.113292
0.0908546
0.0427857
0.0380823
0.0366759
0.0375494
0.0402487
0.0440044
0.048189
0.0526838
0.0574891
0.0625516
0.0678695
0.0734275
0.0791328
0.0847919
0.0901415
0.0958334
0.100555
0.104514
0.108751
0.11393
0.120085
0.12698
0.134561
0.142938
0.152164
0.162252
0.173111
0.183407
0.194369
0.205159
0.2138
0.219195
0.221221
0.220049
0.21629
0.211142
0.2055
0.200046
0.19412
0.189363
0.183038
0.180853
0.171992
0.174277
0.0113612
0.0127291
0.0147924
0.0179489
0.0228324
0.0297158
0.0328315
0.0288661
0.025317
0.023091
0.021669
0.0207486
0.0201579
0.0197922
0.0195831
0.0194911
0.0194818
0.019544
0.0196711
0.0198452
0.0200491
0.0202549
0.0204279
0.0205083
0.02045
0.0201318
0.0202399
0.0216094
0.334117
0.0350501
0.0431704
0.0609548
0.0714296
0.0487859
0.0448103
0.0434594
0.0448065
0.0486256
0.0539741
0.0602297
0.0670303
0.0738824
0.080362
0.0863813
0.0919144
0.0978392
0.10356
0.1084
0.11274
0.117513
0.123285
0.130039
0.137584
0.145927
0.155105
0.165144
0.17603
0.186423
0.197052
0.207371
0.215782
0.220633
0.221925
0.220037
0.215938
0.210729
0.205085
0.199599
0.193696
0.188857
0.182628
0.180166
0.171833
0.173535
0.0115953
0.0122376
0.0131383
0.0142714
0.0157205
0.0175933
0.0200949
0.0236773
0.0292936
0.0390729
0.0493868
0.0405033
0.0329022
0.0287698
0.0263093
0.0247581
0.023746
0.0231003
0.0226988
0.0224707
0.0223687
0.0223543
0.022396
0.0224534
0.022497
0.0224676
0.0223248
0.0218838
0.0215223
0.0197949
0.0272207
0.0184268
0.137993
0.170238
0.165658
0.0683846
0.060594
0.0560566
0.0538465
0.0555038
0.0606165
0.0681302
0.0771639
0.0866835
0.0952141
0.102439
0.108537
0.113532
0.117734
0.122014
0.127268
0.133825
0.141466
0.149933
0.159079
0.168936
0.179583
0.190234
0.200438
0.209988
0.217843
0.222132
0.2226
0.219931
0.215472
0.210211
0.204585
0.199081
0.193212
0.188293
0.182165
0.179457
0.171614
0.172787
0.0114537
0.0118693
0.0124132
0.0130622
0.0138419
0.0147572
0.0158232
0.0170945
0.0186604
0.0206575
0.0233173
0.0271386
0.033241
0.0448254
0.0661411
0.0513051
0.0391194
0.0333913
0.0301714
0.0281935
0.0269312
0.0261179
0.0255995
0.0252736
0.0250712
0.0249318
0.0248114
0.0246551
0.0243782
0.0238343
0.02331
0.0232105
0.0258569
0.0285213
0.0386639
0.306526
0.099802
0.0804811
0.0805943
0.0820856
0.0763899
0.0711485
0.071881
0.0779494
0.0875439
0.0992012
0.111244
0.121408
0.128191
0.132086
0.135147
0.139396
0.145678
0.153903
0.163448
0.173737
0.184473
0.194986
0.204605
0.213128
0.219971
0.223564
0.223275
0.219823
0.214899
0.209514
0.203905
0.198413
0.192609
0.187638
0.181633
0.178732
0.171345
0.172019
0.0109738
0.0113046
0.0116903
0.0121282
0.0126681
0.0133081
0.014032
0.0148402
0.0157426
0.0167572
0.0179176
0.0192859
0.0209653
0.0231228
0.0260257
0.0302593
0.0371591
0.0510334
0.084206
0.0583759
0.0434849
0.0369757
0.0334101
0.0312402
0.0298493
0.0289301
0.0283044
0.0278595
0.0275039
0.0271621
0.0267208
0.026222
0.0252773
0.0245378
0.0229225
7.39493
0.024569
0.0210805
0.235539
0.113385
0.0930552
0.108458
0.117444
0.118296
0.102709
0.0969557
0.101206
0.111395
0.124776
0.137843
0.147711
0.154003
0.158327
0.163087
0.169679
0.178302
0.188427
0.198927
0.208517
0.216424
0.222156
0.224834
0.223906
0.219845
0.214388
0.208707
0.203015
0.197529
0.191824
0.186852
0.181005
0.177983
0.171027
0.171235
0.00968499
0.00992216
0.0101893
0.0104642
0.0108365
0.0113123
0.0118978
0.0125994
0.0134175
0.0143379
0.0153425
0.0164188
0.017566
0.0188014
0.0201622
0.0217225
0.0235942
0.0259972
0.0292588
0.0341061
0.0423057
0.0601436
0.105385
0.061581
0.0465573
0.0399577
0.0363094
0.0340615
0.0325828
0.03156
0.0307896
0.0301589
0.0295544
0.0288552
0.0279307
0.0268129
0.0259074
0.0231287
0.0598466
0.0235374
0.0322176
1.33481
0.3483
0.147342
0.136697
0.106068
0.120446
0.154908
0.137195
0.130694
0.136584
0.148291
0.161577
0.173705
0.18361
0.191644
0.198742
0.205767
0.212745
0.218973
0.223448
0.225258
0.223875
0.219512
0.213685
0.207693
0.201877
0.196413
0.190859
0.18595
0.180282
0.1772
0.170642
0.170419
0.00595586
0.00594652
0.00596138
0.00597188
0.00613324
0.00647749
0.00698657
0.00770607
0.00864366
0.0097553
0.0109874
0.012297
0.013656
0.0150455
0.0164594
0.0179023
0.0193811
0.020931
0.0225998
0.0244749
0.0267039
0.0295382
0.0334109
0.0392869
0.0496949
0.075284
0.111638
0.0627411
0.0490655
0.0427057
0.0390747
0.0367634
0.0351778
0.0339869
0.0330045
0.0320548
0.0310902
0.0298578
0.0283632
0.027022
0.0225679
0.0552951
0.0241413
0.0485802
0.257639
0.144698
0.137725
0.129616
0.0893292
0.0960588
0.133509
0.185758
0.166769
0.161429
0.170538
0.186151
0.20102
0.210987
0.217066
0.221292
0.224128
0.22522
0.223979
0.219888
0.213737
0.20697
0.200493
0.194772
0.189382
0.184719
0.179393
0.176394
0.170213
0.169572
0.00532929
0.0061453
0.00715274
0.128369
0.0490708
0.14298
0.00966283
0.03233
0.037251
0.0145933
0.0160949
0.0166938
0.00716915
0.00839446
0.0106361
0.0126384
0.0144702
0.0162327
0.0179753
0.01972
0.0214962
0.0233528
0.0253579
0.0276178
0.0303152
0.033761
0.0385403
0.0459989
0.0600672
0.102293
0.100984
0.0636381
0.0515289
0.0454576
0.041828
0.0393961
0.0376133
0.0361789
0.0348436
0.0335204
0.0318961
0.0299361
0.0279919
0.0217527
0.0635917
0.0267412
0.0589527
0.193381
0.109667
0.214134
0.136188
0.0883217
0.0873086
0.111094
0.171558
0.20864
0.192144
0.197503
0.212034
0.219643
0.217706
0.214932
0.214228
0.213666
0.21132
0.206766
0.200675
0.194347
0.188322
0.183335
0.178126
0.175291
0.169557
0.16863
0.111581
0.115635
0.100803
0.0911419
0.0836863
0.0819863
0.0846998
0.0939242
0.176623
0.199335
0.277535
0.341071
0.0729526
0.02245
0.0169707
0.0202427
0.0219763
0.0116152
0.0104148
0.012937
0.0152706
0.0174508
0.0195815
0.0216649
0.0237716
0.0259797
0.0283832
0.0311211
0.0344273
0.0386982
0.0447464
0.0545327
0.0746702
0.158195
0.0931285
0.0651087
0.0542213
0.0483365
0.0446044
0.0419654
0.0399036
0.0380562
0.0362794
0.0341981
0.0317405
0.0291405
0.0203957
0.253455
0.0296735
0.126138
0.711568
0.158382
0.166138
0.172628
0.0966948
0.0868389
0.101247
0.141833
0.215041
0.231784
0.229091
0.231021
0.222873
0.21037
0.201673
0.196972
0.193874
0.190717
0.186742
0.182582
0.177543
0.17463
0.168939
0.167517
0.00698134
0.00720732
0.00745783
0.0077418
0.00807942
0.00849793
0.00899624
0.00958888
0.0102828
0.0111427
0.0122224
0.0137457
0.016216
0.0220399
0.0345633
20.4533
0.463305
0.156117
0.031362
0.0215856
0.0267287
0.0172728
0.0133613
0.0124876
0.0156888
0.0185178
0.021088
0.0236062
0.0261293
0.0287801
0.0316848
0.0350274
0.0391155
0.044468
0.0522336
0.0653855
0.0960042
0.202081
0.0898363
0.0673336
0.0572502
0.0513752
0.0474264
0.0444606
0.041921
0.0395633
0.0369675
0.0343413
0.031626
0.0242624
0.092967