/*--------------------------------*- C++ -*----------------------------------*\
| =========                 |                                                 |
| \\      /  F ield         | OpenFOAM: The Open Source CFD Toolbox           |
|  \\    /   O peration     | Version:  2312                                  |
|   \\  /    A nd           | Website:  www.openfoam.com                      |
|    \\/     M anipulation  |                                                 |
\*---------------------------------------------------------------------------*/
FoamFile
{
    version     2.0;
    format      ascii;
    arch        "LSB;label=32;scalar=64";
    class       volSymmTensorField;
    location    "200";
    object      turbulenceProperties:R;
}
// * * * * * * * * * * * * * * * * * * * * * * * * * * * * * * * * * * * * * //

dimensions      [0 2 -2 0 0 0 0];

internalField   nonuniform List<symmTensor> 
11040
(
(1.01173 0.203319 6.1481e-21 0.78903 4.66327e-20 0.930061)
(2.39658 0.272313 -7.2141e-20 1.25234 6.7365e-19 1.94048)
(3.94828 0.0433593 7.80632e-19 1.65532 8.44567e-19 2.95493)
(5.19184 -0.364709 1.76123e-19 2.08768 -1.02934e-18 3.74708)
(6.67064 -0.886003 -5.93364e-20 2.8135 -1.06574e-19 4.77169)
(10.7749 -2.0404 -3.86288e-18 4.99752 -1.40112e-17 7.82261)
(8.11411 -2.12804 1.70312e-19 4.47822 -7.38503e-17 6.11385)
(6.50282 -2.17904 4.49908e-17 4.55071 -9.60121e-17 5.11056)
(6.05303 -2.2211 1.65741e-17 4.83135 7.26875e-17 4.89892)
(8.15034 -3.16961 -1.36501e-17 7.06532 7.13042e-17 6.83502)
(10.6023 -4.22525 -2.66747e-17 9.16925 7.88774e-17 9.18267)
(13.3789 -5.36096 -2.56096e-17 11.3426 2.77195e-18 11.8302)
(15.8278 -6.37818 -3.61641e-18 13.3257 -1.93805e-17 14.2383)
(17.1408 -6.97766 1.45589e-18 14.5476 -1.06853e-17 15.6459)
(18.1781 -7.50856 2.54945e-18 15.7273 -1.12458e-18 16.8233)
(18.9936 -7.98218 3.23832e-20 16.8644 -2.53999e-18 17.8336)
(19.5073 -8.35018 2.01362e-18 17.8421 -1.98044e-18 18.5991)
(19.6877 -8.58389 -1.47312e-20 18.5861 3.20849e-19 19.0737)
(19.5413 -8.67369 -8.78952e-19 19.0623 -3.62264e-19 19.2465)
(19.0975 -8.62137 -1.69309e-19 19.2577 -3.98686e-19 19.1265)
(18.3238 -8.40443 4.70385e-19 19.1041 -7.79374e-19 18.6652)
(17.2958 -8.03949 1.59051e-18 18.5837 2.40103e-18 17.892)
(16.2449 -7.62684 2.55517e-19 17.8805 1.50338e-18 17.015)
(15.2576 -7.22183 1.06931e-19 17.1419 9.62774e-18 16.1572)
(14.3061 -6.81943 -3.29627e-18 16.3764 -3.13867e-18 15.3041)
(13.3564 -6.40598 2.04157e-18 15.5554 -2.94911e-18 14.4221)
(12.4004 -5.97985 -4.4819e-19 14.6763 -4.89588e-18 13.5071)
(11.4397 -5.54313 4.91833e-19 13.7443 9.92135e-20 12.563)
(10.4713 -5.09553 1.81958e-19 12.7591 -1.67807e-18 11.5881)
(9.49249 -4.63671 2.60563e-18 11.7202 1.78914e-18 10.5809)
(8.50291 -4.16724 3.09307e-19 10.6291 4.71306e-18 9.54209)
(7.50522 -3.68914 1.0149e-19 9.49146 -2.16531e-18 8.47588)
(6.50555 -3.20598 3.46277e-18 8.31641 6.54886e-18 7.39004)
(5.50829 -2.72054 -5.87064e-19 7.1118 -5.99875e-20 6.29086)
(4.49832 -2.22594 2.45752e-18 5.85983 2.5421e-18 5.16277)
(3.32923 -1.64991 -8.51526e-20 4.36927 1.17166e-18 3.83748)
(2.14143 -1.0622 -1.79323e-19 2.82817 -9.54941e-21 2.47689)
(1.5862 -0.786713 -2.01075e-23 2.10292 -6.06424e-25 1.83561)
(1.08224 -0.536901 -5.1687e-22 1.43761 -3.92028e-23 1.2543)
(0.797121 -0.387384 -3.18269e-20 1.00048 -2.35696e-22 0.878826)
(0.323686 -0.0198537 4.98894e-21 0.829404 -2.09528e-19 0.548862)
(0.135419 -0.0122231 5.35618e-22 0.12 1.0023e-22 0.123553)
(0.159809 -0.0173228 3.92993e-20 0.156947 -4.46336e-20 0.148311)
(0.288184 -0.0484669 -2.83933e-19 0.251211 -4.9411e-19 0.234072)
(0.870478 -0.129253 -7.0573e-19 0.466879 -1.4986e-19 0.603108)
(2.32907 -0.316972 1.1054e-19 1.02872 -3.65489e-19 1.65255)
(6.37764 -1.05791 -3.41561e-18 2.81895 -1.92623e-18 4.65779)
(11.7839 -2.36413 -1.50246e-17 5.5275 3.34038e-17 8.89109)
(17.6546 -4.00751 -4.33582e-17 8.73134 1.43492e-16 13.8153)
(25.603 -6.65253 1.92655e-17 13.6786 -9.56243e-17 20.6681)
(34.265 -10.0442 3.18141e-17 19.9543 -1.30747e-16 28.5757)
(35.7949 -11.6134 4.34815e-17 22.7706 -1.98656e-16 30.7011)
(32.7314 -11.4562 3.02142e-17 22.5134 -2.92801e-18 28.6745)
(28.1284 -10.4211 -5.95907e-18 20.6864 5.19918e-17 25.0992)
(23.5975 -9.13695 -3.898e-18 18.3839 3.86994e-17 21.43)
(19.8823 -7.96822 -7.78286e-18 16.266 1.38941e-18 18.3563)
(16.9463 -6.98174 -2.3908e-18 14.4582 4.65364e-18 15.8903)
(14.5996 -6.15611 -1.92008e-18 12.9285 3.77082e-19 13.8988)
(12.6997 -5.46345 8.62302e-19 11.6313 4.24918e-18 12.2727)
(11.154 -4.88311 -9.36056e-19 10.5327 1.54596e-18 10.9396)
(9.87831 -4.3904 3.40132e-19 9.58702 6.11747e-19 9.82693)
(8.79816 -3.96246 -2.16717e-18 8.75267 1.97024e-18 8.8743)
(7.94903 -3.62044 -2.46483e-18 8.08255 -7.49964e-18 8.1186)
(7.24925 -3.33234 4.21622e-18 7.51222 -2.93654e-19 7.48171)
(6.63128 -3.07508 5.04425e-18 7.0048 -1.51258e-17 6.91185)
(6.10619 -2.85377 3.77963e-18 6.56797 7.52921e-18 6.42155)
(5.67677 -2.67021 -4.96934e-18 6.20205 2.70494e-18 6.0158)
(5.3231 -2.51738 1.54636e-18 5.89448 9.16579e-18 5.67934)
(5.02407 -2.38678 -5.21081e-19 5.62856 -9.39781e-20 5.39245)
(4.76638 -2.27297 -4.62493e-18 5.39339 1.97947e-18 5.14259)
(4.54181 -2.17263 -4.21165e-18 5.18238 -8.71995e-18 4.92207)
(4.34521 -2.08384 -5.44392e-18 4.99228 -8.6452e-18 4.72656)
(4.17184 -2.00473 -7.55054e-18 4.81983 -1.21968e-19 4.55183)
(4.01679 -1.93326 -7.25328e-18 4.66123 -1.84641e-17 4.39329)
(3.87274 -1.86619 9.76845e-19 4.50975 2.26551e-18 4.24353)
(3.72729 -1.79793 -3.18219e-19 4.35457 -8.51175e-18 4.08979)
(3.54149 -1.70951 -5.83622e-18 4.15014 -5.01235e-18 3.88775)
(3.29305 -1.59098 3.47079e-19 3.87003 3.25314e-20 3.61945)
(3.08414 -1.48932 9.62296e-20 3.61999 5.30545e-19 3.38679)
(2.90378 -1.41055 6.42164e-23 3.45805 3.33316e-22 3.22647)
(2.71956 -1.30509 1.17824e-19 3.17913 -1.02585e-19 2.93622)
(4.21199 -2.08509 -1.66233e-18 5.23186 2.13144e-18 5.15545)
(0.0767315 -0.00854015 -4.81037e-21 0.06836 -1.39042e-20 0.0728165)
(0.0503114 -0.00576807 -4.62972e-20 0.0581697 -4.84609e-20 0.0564339)
(0.0411018 -0.00115747 2.19531e-20 0.051866 7.27855e-20 0.0489465)
(0.0292508 -6.25613e-05 4.9129e-20 0.0395503 4.60318e-20 0.0367114)
(0.0310954 -0.00565294 -1.80546e-19 0.0239909 -1.05078e-19 0.0286875)
(0.317849 -0.0566594 -1.95016e-19 0.172855 4.66566e-19 0.242647)
(1.25624 -0.267653 6.66433e-19 0.626327 1.44727e-18 0.938753)
(3.02094 -0.730611 1.14613e-18 1.5675 -2.74542e-18 2.30766)
(5.65959 -1.53724 -2.25866e-18 3.14774 4.19335e-18 4.43856)
(8.96003 -2.67665 5.44755e-19 5.35474 -1.37124e-18 7.20564)
(12.6059 -4.06429 -3.87406e-18 8.06273 8.62792e-18 10.3744)
(16.2026 -5.56733 -1.14652e-17 11.0526 -2.28156e-17 13.639)
(19.3758 -7.0118 5.16935e-18 14.0011 -1.09402e-17 16.6846)
(21.6632 -8.17855 1.56705e-18 16.4687 -6.00752e-18 19.0753)
(22.7142 -8.88647 4.47588e-18 18.079 6.9265e-18 20.4322)
(22.4621 -9.06438 4.61783e-18 18.663 1.27463e-18 20.6179)
(21.1506 -8.77251 1.42372e-18 18.3072 9.39936e-19 19.7901)
(19.2219 -8.16844 6.31806e-18 17.299 4.13996e-19 18.3124)
(17.1143 -7.42976 1.30369e-18 15.9817 -6.25866e-19 16.5799)
(15.1233 -6.68746 -1.07371e-18 14.616 -1.61947e-18 14.8759)
(13.3737 -6.00874 4.40834e-18 13.3422 2.79864e-18 13.3428)
(11.9372 -5.43466 1.86423e-18 12.247 3.11117e-18 12.0622)
(10.8296 -4.98221 -3.89686e-18 11.3718 -5.13527e-18 11.0635)
(9.92954 -4.60875 -7.91619e-18 10.6384 -1.26178e-17 10.2488)
(9.17455 -4.28971 -8.02748e-18 9.99851 -8.77214e-18 9.55726)
(8.53568 -4.01455 9.11463e-18 9.43464 1.13229e-18 8.96111)
(7.98299 -3.77266 -7.26953e-19 8.92907 2.26645e-19 8.43632)
(7.49681 -3.55676 3.30959e-19 8.46917 -2.63404e-18 7.96651)
(7.06506 -3.36242 6.36164e-18 8.04724 7.93341e-18 7.5419)
(6.68149 -3.18761 -5.47062e-18 7.66047 9.29849e-18 7.15806)
(6.3414 -3.03082 1.29441e-17 7.3069 2.43207e-18 6.81203)
(6.04134 -2.89095 -1.23789e-18 6.98528 1.44469e-17 6.50174)
(5.77796 -2.76685 1.6211e-18 6.69413 6.75351e-18 6.22487)
(5.54568 -2.65619 1.04579e-17 6.429 -7.52378e-19 5.97654)
(5.33951 -2.55715 -8.8636e-18 6.18802 4.733e-19 5.75334)
(5.15248 -2.46637 -8.52884e-19 5.96358 3.65786e-18 5.54738)
(4.97907 -2.38368 3.0783e-19 5.76199 1.69749e-20 5.36308)
(4.80655 -2.29802 7.14229e-18 5.5443 -6.83382e-19 5.16554)
(4.61571 -2.22016 -2.40642e-19 5.39828 -7.32689e-21 5.01533)
(4.27782 -2.02707 5.33826e-18 4.89445 -6.61337e-19 4.5071)
(4.70131 -2.27885 2.17934e-18 5.56897 -2.20398e-18 5.20117)
(0.0542695 -0.00584229 3.8554e-21 0.048145 9.28002e-21 0.0513192)
(0.0455668 -0.00590702 6.4729e-21 0.0483258 2.74654e-20 0.0468198)
(0.0365561 -0.00346638 -2.23401e-20 0.0443289 -3.32266e-20 0.0403251)
(0.0310916 -0.00113794 -2.22744e-20 0.0393664 -1.4604e-20 0.0350464)
(0.026415 -4.51927e-05 2.89748e-20 0.0333083 2.32847e-20 0.0296268)
(0.0165211 0.000151518 2.00809e-20 0.0200666 1.40331e-20 0.0181083)
(0.0092577 -0.000168226 -4.59817e-21 0.0115475 -1.6014e-20 0.0100902)
(0.021076 -0.00392593 4.6796e-21 0.0191116 -7.32989e-21 0.0187473)
(0.107371 -0.0255927 -4.90864e-20 0.0740779 6.56413e-20 0.0868623)
(0.27698 -0.0774425 -6.03573e-19 0.175747 4.55496e-20 0.221006)
(0.517276 -0.159037 9.45474e-20 0.330134 3.16731e-19 0.419731)
(0.837872 -0.276251 6.87565e-19 0.555795 1.48469e-18 0.695492)
(1.33539 -0.465543 -2.06721e-20 0.928766 -2.62964e-20 1.13295)
(2.1695 -0.790137 2.37106e-18 1.57995 -2.50436e-19 1.87713)
(3.47684 -1.3111 -3.48062e-19 2.63955 -1.03514e-18 3.06082)
(5.27474 -2.04827 -1.94082e-18 4.15967 -2.86416e-18 4.71826)
(7.4052 -2.95254 -4.32295e-18 6.05598 -1.34782e-19 6.73002)
(9.55494 -3.90567 1.00811e-18 8.10125 -2.10243e-18 8.82881)
(11.3649 -4.75818 -2.11217e-18 9.99578 -1.68015e-18 10.6873)
(12.5583 -5.37946 -9.05845e-19 11.4629 7.59203e-19 12.0275)
(13.0402 -5.70717 -1.54719e-18 12.3528 -2.39425e-18 12.7243)
(12.9194 -5.76075 -3.84364e-18 12.6689 -2.46636e-19 12.8264)
(12.4301 -5.62462 -1.23805e-19 12.5515 2.07796e-18 12.5186)
(11.7655 -5.38668 -8.70808e-18 12.1785 2.04695e-18 11.994)
(11.0627 -5.1122 -2.92433e-18 11.6911 1.05372e-17 11.392)
(10.3998 -4.84076 -1.84346e-17 11.1802 -1.90732e-18 10.7965)
(9.80184 -4.5887 2.14037e-18 10.6878 1.99399e-18 10.2439)
(9.27353 -4.3614 -8.42182e-18 10.2308 2.73595e-18 9.74628)
(8.81131 -4.15931 9.93358e-18 9.81416 -5.92123e-18 9.30414)
(8.40851 -3.98059 1.47068e-17 9.4362 -7.76973e-19 8.91286)
(8.05681 -3.82222 -7.0589e-18 9.09206 -6.04622e-18 8.56532)
(7.74806 -3.68101 2.9302e-17 8.77603 -4.45731e-18 8.25412)
(7.47547 -3.55423 -1.34396e-18 8.48356 -1.3925e-19 7.97297)
(7.23145 -3.43877 1.54903e-18 8.20919 -4.3275e-18 7.71503)
(7.01117 -3.33307 7.15118e-19 7.95213 3.38776e-18 7.4775)
(6.80998 -3.23501 -2.64346e-18 7.70855 1.47644e-18 7.2552)
(6.6245 -3.14591 1.90567e-19 7.49016 -4.38358e-20 7.05562)
(6.44368 -3.05447 2.13942e-18 7.25619 -1.82065e-18 6.84263)
(6.24699 -2.97535 -7.53397e-20 7.10532 7.55948e-21 6.68883)
(5.9174 -2.77499 2.28742e-18 6.55626 7.32225e-20 6.15622)
(6.15551 -2.89814 2.71229e-20 6.70655 2.58166e-19 6.56726)
(0.0377892 -0.00396186 3.35249e-22 0.0332227 1.53995e-23 0.0355092)
(0.0337899 -0.00438535 7.92947e-21 0.0347647 6.73541e-21 0.0342149)
(0.0290787 -0.00323273 3.59953e-20 0.0340319 4.40061e-20 0.0314874)
(0.0242265 -0.00156635 4.17183e-20 0.0305257 2.98958e-20 0.0273186)
(0.0209187 -0.000220451 -5.25263e-20 0.0269109 -4.02806e-20 0.0238999)
(0.0183886 0.000531797 2.4738e-20 0.0229518 4.53994e-21 0.0206894)
(0.0137791 0.000565772 -1.43023e-21 0.0160664 1.09735e-21 0.0149345)
(0.00747984 0.000240945 5.23339e-22 0.0080933 -4.63848e-22 0.00778743)
(0.00307725 5.89507e-05 8.97422e-22 0.00317564 4.534e-22 0.00312556)
(0.00864604 0.000720504 2.0771e-20 0.00938592 7.94828e-21 0.00898868)
(0.00113747 1.78698e-05 2.70548e-22 0.00114614 -1.84881e-23 0.00114066)
(0.00125733 3.23222e-05 -8.37285e-24 0.00125678 -3.44285e-22 0.00125374)
(0.000308869 3.03478e-06 -1.33287e-23 0.000306817 3.27367e-24 0.0003073)
(0.00050215 5.69377e-06 -1.0542e-21 0.000475451 -7.81274e-22 0.000484833)
(0.0026742 -0.000165679 2.04935e-21 0.00233223 4.49827e-21 0.00247254)
(0.0216105 -0.00507348 -9.84156e-20 0.0165641 1.56314e-20 0.0188152)
(0.0984888 -0.0351107 1.95673e-19 0.0742007 1.9926e-19 0.0855685)
(0.300073 -0.116347 -2.69138e-20 0.238055 -1.13048e-19 0.26793)
(0.738085 -0.297007 -4.43463e-21 0.612652 1.66067e-19 0.674108)
(1.52078 -0.628435 3.48184e-20 1.31185 1.56153e-19 1.41488)
(2.70073 -1.14179 8.399e-19 2.41473 3.88396e-19 2.55618)
(4.12305 -1.77855 2.27773e-18 3.81277 7.96617e-19 3.96634)
(5.50728 -2.41592 -5.4193e-19 5.24755 -1.7056e-19 5.37463)
(6.683 -2.97455 -4.93388e-18 6.5422 2.04992e-18 6.61075)
(7.57811 -3.41561 1.4015e-17 7.60128 -1.50296e-18 7.59154)
(8.19288 -3.73242 8.56398e-18 8.39799 6.02081e-18 8.3014)
(8.5659 -3.93786 6.24765e-18 8.95005 -1.63434e-18 8.7678)
(8.74979 -4.05279 7.67051e-18 9.29497 2.19864e-18 9.03507)
(8.79871 -4.10034 -8.95849e-18 9.47836 -2.78079e-18 9.15245)
(8.75963 -4.10149 -1.59159e-17 9.54352 -2.57376e-18 9.16486)
(8.66863 -4.07312 4.16116e-19 9.52699 2.03877e-18 9.10893)
(8.55127 -4.02767 -1.55358e-17 9.45692 -6.54613e-18 9.01217)
(8.42472 -3.97383 1.26394e-18 9.35402 -4.52464e-20 8.89399)
(8.29791 -3.9166 2.72035e-18 9.23147 -1.63371e-18 8.76611)
(8.17586 -3.85924 3.74331e-19 9.09926 1.09331e-19 8.63665)
(8.05875 -3.80209 1.20838e-17 8.95959 -1.0454e-18 8.50616)
(7.94506 -3.74731 -6.81984e-19 8.8251 -7.9214e-19 8.38353)
(7.82685 -3.68498 -1.04098e-17 8.66075 1.02694e-18 8.23577)
(7.6859 -3.63085 1.8036e-19 8.55661 1.51477e-20 8.13676)
(7.49467 -3.4887 2.6976e-18 8.13323 -8.76751e-20 7.73348)
(7.50413 -3.5214 1.00093e-17 8.10688 -8.9528e-19 7.97932)
(0.0257448 -0.00267466 1.68456e-23 0.0225841 -1.93664e-22 0.0241963)
(0.024339 -0.00312622 -1.05611e-22 0.0243198 -1.41879e-21 0.0243106)
(0.0221056 -0.00267669 -9.23333e-21 0.0249172 -2.01872e-20 0.0235349)
(0.0193662 -0.00168038 -1.48646e-20 0.0237886 -1.96314e-20 0.021635)
(0.0169554 -0.000662179 3.49421e-20 0.021762 3.75338e-20 0.0194057)
(0.015441 0.0001444 -3.45274e-20 0.0199856 -2.6391e-20 0.0177412)
(0.014528 0.000723481 1.72692e-20 0.0183827 7.78445e-21 0.0164822)
(0.0132613 0.000980096 -2.26676e-20 0.0159786 -7.54926e-21 0.0146502)
(0.0112643 0.000900636 -1.61976e-22 0.0128136 -1.29201e-21 0.0120598)
(0.00827295 0.000570669 -7.9382e-21 0.00890506 -7.74909e-21 0.00859636)
(0.00623679 0.000374668 -3.14682e-21 0.00649457 -1.17569e-21 0.00636801)
(0.00453133 0.000226975 3.67841e-22 0.00462027 -1.11775e-22 0.00457647)
(0.00331793 0.000138275 5.52161e-22 0.00334588 3.27913e-22 0.00333212)
(0.00233675 7.62412e-05 -7.715e-22 0.00234411 2.19212e-22 0.00234058)
(0.000935471 1.32873e-05 3.13915e-22 0.000935932 -1.4534e-25 0.000935731)
(0.000697336 7.93898e-06 3.03455e-23 0.000697193 2.82871e-23 0.000697259)
(6.03446e-07 6.50881e-12 3.23898e-29 6.03445e-07 -2.51121e-29 6.03445e-07)
(0.0231664 0.00742437 -4.88408e-20 0.0218812 8.72775e-22 0.022424)
(0.0414601 0.0162658 1.09843e-20 0.0360237 -4.18627e-20 0.0383913)
(0.00106977 4.25398e-05 1.37827e-23 0.00103826 6.15462e-23 0.00105243)
(0.0109197 0.000813882 1.56073e-20 0.00488004 -7.01329e-21 0.00768174)
(0.0603909 -0.0194421 -1.09892e-19 0.0390874 -9.4934e-20 0.0492672)
(0.210883 -0.0828053 -9.87592e-22 0.169296 -7.47048e-20 0.189467)
(0.496858 -0.207224 -4.44914e-19 0.434977 3.70334e-19 0.465222)
(0.938453 -0.403465 -3.01874e-18 0.863158 -1.17111e-18 0.899982)
(1.52918 -0.670082 8.0365e-19 1.45461 -6.53573e-19 1.49042)
(2.24196 -0.995965 -2.53034e-18 2.18801 -6.94106e-19 2.21231)
(3.03387 -1.36219 -5.59768e-20 3.02305 -1.46349e-18 3.02446)
(3.85747 -1.74705 -9.57645e-19 3.91146 1.1292e-18 3.87955)
(4.66874 -2.12981 5.41475e-18 4.80532 2.44575e-18 4.73201)
(5.43212 -2.49314 -9.34452e-19 5.66311 4.48767e-19 5.54358)
(6.12269 -2.82436 1.21056e-18 6.45274 2.76062e-18 6.28576)
(6.72639 -3.11561 -5.09972e-19 7.15261 -6.06049e-19 6.94027)
(7.23902 -3.36387 -1.31776e-17 7.75257 1.80513e-19 7.49946)
(7.66149 -3.56873 1.64707e-18 8.24902 -8.32585e-19 7.9615)
(7.996 -3.7302 -3.93182e-19 8.63953 -6.00524e-19 8.3249)
(8.24764 -3.85222 -1.57197e-17 8.93554 1.78035e-18 8.60052)
(8.42419 -3.93259 6.33529e-19 9.12218 8.53828e-19 8.77393)
(8.51347 -3.98752 2.52988e-19 9.27607 1.46418e-19 8.91553)
(8.59828 -3.97335 -1.02584e-17 9.15784 9.58833e-19 8.80317)
(8.54384 -4.02134 -9.05455e-18 9.31393 1.41977e-18 9.09715)
(0.0178902 -0.00184586 -1.94167e-21 0.015662 -1.2342e-21 0.0167974)
(0.0174181 -0.00220311 1.06413e-20 0.0170204 7.98497e-21 0.0172056)
(0.016818 -0.0021317 -1.13285e-20 0.0182964 -6.50542e-21 0.0175476)
(0.0157784 -0.00164929 -2.6538e-21 0.0187473 3.74057e-21 0.0172515)
(0.0144598 -0.000962736 3.30919e-21 0.0181878 -2.44981e-21 0.0163013)
(0.0131321 -0.000296223 1.03353e-20 0.0169577 9.97807e-21 0.0150169)
(0.0120405 0.000260253 -9.64101e-21 0.0155704 -1.22765e-20 0.0137838)
(0.0112202 0.000696013 2.83595e-20 0.0142147 1.71633e-20 0.0127082)
(0.0104929 0.000985207 1.05141e-20 0.0127783 1.96752e-21 0.0116365)
(0.00973039 0.00111641 -1.50623e-20 0.0112698 2.81005e-21 0.010506)
(0.00863448 0.0010556 1.20548e-20 0.0094684 2.47846e-21 0.00905846)
(0.00756153 0.000935619 -1.07572e-20 0.0079133 -2.86355e-21 0.0077429)
(0.00647131 0.000780884 1.00301e-20 0.00653793 5.88163e-21 0.00650665)
(0.00554026 0.000643763 -2.20257e-21 0.00547354 -1.86928e-21 0.00550677)
(0.00485018 0.000541494 -1.46055e-20 0.00473055 -8.20703e-21 0.0047902)
(0.00428849 0.000451183 4.57926e-22 0.00415219 2.65999e-21 0.0042205)
(0.00365319 0.000340945 -4.60485e-21 0.0035277 -5.0324e-22 0.00359052)
(0.00269942 0.000191582 1.28548e-21 0.00261803 3.45467e-22 0.00265868)
(0.00166697 7.43918e-05 -9.61345e-22 0.00163149 -1.90499e-22 0.00164919)
(3.75526e-07 3.88268e-12 1.56216e-29 3.75524e-07 -7.29278e-30 3.75525e-07)
(0.00311655 0.000250256 2.55885e-22 0.00296748 8.19575e-22 0.00304121)
(0.000201652 1.1874e-06 -4.16791e-24 0.000200827 -6.75277e-25 0.000201234)
(0.00195781 0.000116934 -7.91773e-22 0.00186013 -1.38535e-22 0.0019081)
(0.0051658 0.000784703 1.17124e-22 0.00432099 8.30234e-22 0.00473583)
(0.0103938 0.00228463 -2.96868e-20 0.00655643 1.79507e-20 0.00845257)
(0.0173617 0.0017123 9.35056e-20 0.00723784 5.76079e-22 0.0122761)
(0.0359386 -0.00721679 -1.08102e-19 0.017082 2.78437e-20 0.026526)
(0.0946567 -0.032831 -4.44782e-19 0.0652826 2.06433e-20 0.0800674)
(0.216308 -0.0860046 8.07062e-20 0.176181 1.35212e-19 0.196413)
(0.427064 -0.179523 1.39775e-18 0.37818 -2.30571e-19 0.402705)
(0.752384 -0.325596 1.39953e-18 0.699721 -3.92448e-19 0.725682)
(1.2116 -0.533572 2.97589e-18 1.16319 -3.61692e-19 1.18606)
(1.8143 -0.808208 -3.41704e-18 1.78048 3.11534e-19 1.79452)
(2.55832 -1.14891 -7.54891e-18 2.55116 1.53487e-18 2.55002)
(3.424 -1.54702 -8.63325e-18 3.45625 6.46889e-19 3.43385)
(4.37141 -1.98418 1.00119e-17 4.45402 -6.57891e-19 4.4054)
(5.3444 -2.4357 1.02181e-17 5.4894 -3.77901e-19 5.41141)
(6.29564 -2.87524 1.20509e-17 6.49641 -8.68218e-19 6.38798)
(7.14195 -3.28222 1.26886e-17 7.45331 -1.00265e-18 7.31101)
(7.93836 -3.60645 -3.32652e-20 8.13622 -6.03742e-20 7.98047)
(8.45202 -3.96078 -1.31937e-17 9.12501 6.82737e-19 8.94337)
(0.0125467 -0.00129419 -7.64657e-22 0.0109831 -6.19609e-22 0.011783)
(0.0123831 -0.0015444 -6.1955e-21 0.0119239 -4.79905e-21 0.0121483)
(0.0123164 -0.00158901 6.97059e-21 0.0130291 6.92376e-21 0.0126711)
(0.0119787 -0.00138413 8.90637e-21 0.0137996 6.88525e-21 0.0128926)
(0.0113778 -0.000977119 1.68455e-20 0.0139884 9.02674e-21 0.0126866)
(0.0106807 -0.00049176 -1.89653e-20 0.0136499 -1.616e-20 0.0121656)
(0.0100038 -2.91917e-05 -3.02759e-20 0.0129557 -1.30541e-20 0.0114787)
(0.00937356 0.00036136 -1.7098e-20 0.0120359 -1.10264e-20 0.0107059)
(0.00875076 0.000654553 3.28212e-21 0.0109358 1.72157e-21 0.00984815)
(0.00809696 0.000833881 1.58967e-20 0.00970789 1.13307e-20 0.00890911)
(0.0073707 0.000895495 -3.11343e-20 0.00840149 -1.26211e-20 0.00789205)
(0.00657045 0.000859958 4.91041e-21 0.00710348 3.00501e-21 0.00684099)
(0.00573776 0.000764924 2.70391e-20 0.00590869 2.38831e-21 0.00582532)
(0.00496629 0.000654187 -2.09513e-20 0.00491331 -5.02981e-21 0.00494112)
(0.00433787 0.000557579 -5.30755e-21 0.00415987 3.77065e-21 0.00425109)
(0.00386965 0.000483068 2.52967e-20 0.0036193 3.7013e-21 0.00374792)
(0.00353973 0.000428361 5.39018e-21 0.00323962 -3.17319e-22 0.00339352)
(0.00324585 0.000373579 -4.34539e-21 0.00291846 6.50422e-22 0.00308567)
(0.00303261 0.000330876 -3.42861e-21 0.00268622 7.48946e-22 0.00286264)
(0.0026948 0.000263481 -5.29251e-21 0.00237692 -4.11922e-22 0.00253841)
(0.00212559 0.000166492 6.24259e-21 0.00190217 3.01068e-22 0.00201543)
(0.00143301 7.77743e-05 -1.00302e-21 0.00132105 -1.07846e-23 0.00137768)
(0.000946883 3.49505e-05 -3.02728e-22 0.000894893 5.1272e-23 0.00092104)
(2.8277e-05 3.34761e-08 3.53245e-27 2.82271e-05 7.59767e-27 2.82521e-05)
(0.000964466 3.67409e-05 -3.26481e-22 0.000910042 -4.49067e-23 0.000937205)
(0.00301953 0.000312809 2.93774e-21 0.00255275 3.03526e-23 0.00278541)
(0.000402929 6.93995e-06 -7.15616e-23 0.000392181 5.72006e-24 0.000397533)
(0.0158501 0.00387634 7.57466e-21 0.00931151 6.0651e-21 0.0125701)
(0.00130211 7.11361e-05 1.85093e-21 0.00115979 -2.05449e-22 0.00123095)
(0.00864906 0.00138557 4.8796e-21 0.00469366 -9.2611e-21 0.00668257)
(0.0131022 0.000924663 -2.75488e-19 0.00543303 1.61139e-20 0.00931697)
(0.0239205 -0.0031235 -1.35851e-19 0.0100742 -1.63506e-20 0.0171401)
(0.0565915 -0.0168945 3.11097e-19 0.0338596 1.19599e-20 0.0455329)
(0.135953 -0.0509949 1.22835e-18 0.102404 -3.32339e-20 0.119667)
(0.297591 -0.121726 1.37042e-19 0.25236 1.33394e-19 0.275524)
(0.586074 -0.249486 1.6012e-19 0.529755 -1.04287e-19 0.558015)
(1.0441 -0.454225 -1.75725e-20 0.98011 -1.11329e-19 1.01149)
(1.71514 -0.753556 3.46825e-19 1.64104 -2.12453e-19 1.67371)
(2.59933 -1.15722 -5.70641e-18 2.54425 3.34793e-19 2.57345)
(3.68368 -1.61734 1.26986e-19 3.53812 -6.92659e-21 3.57416)
(4.9787 -2.28511 7.7393e-18 5.13501 -6.23567e-19 5.13912)
(0.00889138 -0.00092096 5.52697e-22 0.00779367 3.73249e-22 0.00835581)
(0.00882312 -0.00108905 -3.33113e-23 0.00842032 3.13589e-22 0.00861858)
(0.0089075 -0.00115389 1.14511e-20 0.00923409 6.46482e-21 0.00906994)
(0.00891149 -0.00108708 6.13681e-22 0.00999546 -9.79457e-22 0.00945434)
(0.0087549 -0.000878415 1.40124e-21 0.0104964 -1.49867e-21 0.00962504)
(0.00847513 -0.000570753 4.30698e-22 0.0106516 3.61741e-21 0.00955912)
(0.00813126 -0.000226401 1.29001e-20 0.0104792 1.02202e-20 0.00929837)
(0.00775668 0.000103118 -1.12586e-21 0.0100332 -9.57999e-22 0.00888839)
(0.00734846 0.000379983 3.83943e-22 0.00935649 5.55633e-21 0.00834837)
(0.00688591 0.000576565 3.12698e-20 0.00849288 8.62323e-21 0.00768769)
(0.00635685 0.000681729 2.66258e-21 0.00750993 3.3079e-21 0.00693267)
(0.0057631 0.000702758 -2.2941e-20 0.006485 -5.81488e-21 0.00612338)
(0.00513129 0.000661988 -3.60588e-21 0.00550083 -6.52411e-21 0.00531513)
(0.00451667 0.000590056 5.90051e-21 0.00463523 6.18111e-21 0.00457464)
(0.00397473 0.000513161 -7.09946e-21 0.00393129 -3.2526e-21 0.00395181)
(0.00353435 0.000445306 -6.15127e-21 0.00338819 -4.235e-21 0.00346048)
(0.00318777 0.000388456 -9.83794e-21 0.00297187 -1.37339e-21 0.00307918)
(0.00291816 0.00034103 1.42436e-20 0.0026497 2.61819e-21 0.00278315)
(0.00270218 0.000299122 -3.64499e-21 0.00239152 -2.9582e-22 0.002546)
(0.00255082 0.000265161 1.30366e-22 0.00219877 1.37001e-21 0.00237403)
(0.00239741 0.000227012 -4.77583e-22 0.00201763 -2.95573e-21 0.002207)
(0.00215972 0.000176183 1.04455e-21 0.0017936 1.44806e-21 0.00197653)
(0.00191019 0.000131199 -9.17631e-22 0.00157959 2.39804e-22 0.00174481)
(0.00160552 8.95911e-05 -1.66673e-22 0.00134094 -1.69619e-23 0.00147313)
(0.00134435 6.13993e-05 -3.17051e-21 0.00114003 1.99031e-22 0.00124223)
(0.00102507 3.58429e-05 1.51815e-21 0.000895544 -2.31063e-23 0.000960393)
(0.000727769 1.84648e-05 -6.14299e-23 0.000657712 -1.93261e-23 0.000692768)
(0.000330876 4.05141e-06 -8.74684e-23 0.000315235 1.17099e-23 0.000323051)
(5.61825e-06 1.24857e-09 -5.08826e-26 5.61347e-06 -6.47628e-27 5.61586e-06)
(0.000522746 1.01881e-05 -1.62055e-22 0.000484391 3.13055e-23 0.000503499)
(0.00108784 4.13715e-05 2.50019e-21 0.000933677 1.87603e-22 0.00101042)
(0.00313113 0.000259019 -5.85505e-21 0.00214109 1.55597e-21 0.00263432)
(0.000205303 1.68958e-06 -6.65537e-25 0.000198087 -8.5254e-25 0.000201694)
(0.00111101 3.41328e-05 -2.34398e-21 0.000906931 -1.16735e-22 0.00100955)
(0.0030409 3.72038e-05 3.21071e-20 0.00180337 -1.78543e-21 0.00243192)
(0.00870514 -0.00107661 -1.9156e-20 0.00394569 -1.40358e-22 0.00638673)
(0.0251961 -0.00720308 3.87758e-20 0.0146542 3.9722e-21 0.0201605)
(0.0737443 -0.0270228 -1.34065e-18 0.0540459 8.61642e-20 0.0641389)
(0.192631 -0.0789116 -5.72421e-20 0.163179 1.36651e-20 0.179539)
(0.418957 -0.171695 -2.61626e-22 0.359074 7.9801e-22 0.384337)
(0.944813 -0.415808 3.3478e-18 0.896033 -1.38301e-19 0.938651)
(0.0063366 -0.000661888 -1.75165e-21 0.00556952 -9.66469e-22 0.00596299)
(0.00629722 -0.000772762 1.89145e-21 0.00598269 9.36495e-22 0.0061382)
(0.00638977 -0.000826919 2.00528e-22 0.00653599 -1.06402e-21 0.00646296)
(0.0064844 -0.000813322 -8.82277e-21 0.00712475 -5.40769e-21 0.00680607)
(0.00650917 -0.000715221 -5.68077e-22 0.00762786 1.42044e-21 0.0070699)
(0.00645168 -0.000538731 1.0234e-20 0.00795642 4.62165e-21 0.0072044)
(0.00632919 -0.000310363 -5.75672e-22 0.00807169 -3.70956e-21 0.00719931)
(0.00616217 -6.36926e-05 -1.97137e-20 0.00797337 -6.75905e-21 0.0070657)
(0.00595526 0.00016944 3.34035e-20 0.00767269 1.26497e-20 0.00681222)
(0.00569961 0.000361067 -1.05579e-20 0.00718941 -1.04977e-20 0.00644395)
(0.00538572 0.000492115 1.32434e-20 0.00656331 3.96147e-21 0.0059749)
(0.00501069 0.00055723 1.35021e-20 0.00584944 5.22719e-21 0.00543079)
(0.00458596 0.000564501 -2.12345e-20 0.00511216 -5.00756e-21 0.00484983)
(0.00414347 0.000532498 1.56252e-20 0.00441737 1.43418e-21 0.00428096)
(0.0037222 0.000481894 -2.04573e-20 0.00381196 -1.81568e-21 0.00376753)
(0.00335105 0.000427787 6.30729e-21 0.00331308 3.24811e-21 0.00333271)
(0.00303932 0.000377308 4.01792e-21 0.00291229 7.55922e-22 0.00297663)
(0.00278227 0.000332219 -4.08507e-22 0.00259058 6.46478e-22 0.00268721)
(0.00256888 0.000291668 4.16792e-24 0.00232809 -2.96206e-23 0.00244915)
(0.00239362 0.000255246 -4.14789e-22 0.002113 -6.75311e-22 0.00225388)
(0.00224999 0.000221995 -5.92236e-21 0.00193531 3.83409e-22 0.00209315)
(0.00212727 0.000190711 7.44104e-21 0.00178507 -1.95079e-22 0.00195667)
(0.00200792 0.000160134 -1.35521e-21 0.00164923 5.36178e-22 0.00182894)
(0.00191443 0.000134437 5.49701e-23 0.00154209 -9.35215e-23 0.00172841)
(0.00180614 0.000108586 1.1547e-22 0.00143572 5.99409e-22 0.00162103)
(0.00169931 8.50059e-05 1.47189e-21 0.00133984 4.27479e-23 0.00151974)
(0.00155439 6.1156e-05 -2.97719e-21 0.00122774 1.00138e-23 0.00139122)
(0.00143598 4.28469e-05 2.77801e-21 0.0011382 3.76287e-23 0.0012872)
(0.00118331 2.32431e-05 -2.00821e-21 0.000964381 2.26316e-22 0.00107391)
(0.000970009 1.16617e-05 1.47622e-21 0.000812785 -5.30526e-23 0.000891432)
(0.000744159 4.77985e-06 -4.52622e-22 0.000645323 -1.17235e-22 0.000694739)
(0.000475851 1.28297e-06 6.20401e-22 0.00043223 -2.58559e-23 0.000454019)
(0.000230472 1.95625e-07 9.68386e-23 0.000219397 -8.85656e-24 0.000224921)
(0.000114168 3.70333e-08 1.70378e-25 0.000111278 2.92688e-24 0.000112717)
(0.000153239 6.62048e-08 5.12619e-23 0.000147825 -8.76537e-24 0.000150518)
(0.000439714 4.76475e-07 -5.72095e-22 0.000395543 3.10095e-23 0.000417489)
(0.00168779 -4.49031e-06 1.3594e-20 0.00116576 -9.85664e-22 0.00142689)
(0.00522872 -0.0001616 6.99861e-20 0.00239648 -1.9158e-21 0.00380642)
(0.00100571 -5.27379e-05 -4.76195e-22 0.000779659 -3.94617e-23 0.000897047)
(0.00385099 -0.000652289 3.08042e-21 0.00228857 -1.16782e-22 0.00304231)
(0.0308743 -0.010546 -3.00906e-19 0.0208881 1.42849e-20 0.026615)
(0.00453288 -0.000479046 -5.81922e-24 0.00399991 1.74673e-24 0.00427371)
(0.00450364 -0.000551623 -1.13056e-20 0.00427327 -5.45384e-21 0.00438727)
(0.00457098 -0.000590342 -2.20617e-22 0.00463876 -6.18242e-22 0.00460495)
(0.00466699 -0.000593323 -1.31711e-20 0.00505452 -5.45625e-21 0.00486172)
(0.00474749 -0.000549657 2.04464e-20 0.00546155 1.03534e-20 0.00510544)
(0.00479178 -0.00045536 -1.46255e-20 0.00580213 -8.5199e-21 0.00529738)
(0.00479421 -0.000317132 -7.09759e-21 0.00603092 -1.56682e-21 0.00541218)
(0.00475707 -0.000150433 6.25754e-21 0.00612089 3.81213e-21 0.00543765)
(0.00468205 2.45934e-05 -2.53383e-20 0.00606037 -1.17085e-20 0.00536929)
(0.00456609 0.000186598 -1.47955e-20 0.00585035 -7.47469e-21 0.00520645)
(0.00440602 0.000317277 -7.30023e-21 0.0055097 -2.135e-21 0.00495642)
(0.00419791 0.000405314 3.94881e-22 0.00506875 1.20201e-21 0.00463213)
(0.00394374 0.000448331 -1.78555e-21 0.00456852 2.13863e-21 0.00425525)
(0.00365854 0.00045334 -1.39242e-20 0.0040576 -4.12821e-21 0.00385736)
(0.00336518 0.00043277 2.01126e-20 0.00357816 5.74348e-21 0.00347112)
(0.00308607 0.000399117 1.44662e-21 0.00315601 -1.81554e-22 0.00312075)
(0.00283494 0.000361069 -8.65722e-21 0.00279819 -2.73214e-21 0.00281652)
(0.00261553 0.000323036 2.31799e-20 0.00249919 3.52693e-21 0.0025574)
(0.00242597 0.000286721 -5.04086e-21 0.00224937 -6.61231e-22 0.00233767)
(0.00226173 0.000252341 -3.71558e-21 0.00203854 -1.14485e-21 0.00215007)
(0.0021185 0.00021983 3.97631e-21 0.00185915 1.06738e-21 0.0019887)
(0.00199465 0.00018983 -5.30123e-21 0.00170818 -9.67707e-22 0.0018513)
(0.0018855 0.000162516 5.72349e-21 0.00158022 1.16413e-21 0.00173274)
(0.00178838 0.000137975 -1.11149e-21 0.00147094 -8.19416e-22 0.00162946)
(0.00170418 0.000116239 -9.49383e-22 0.00137926 -1.16442e-22 0.00154151)
(0.00163489 9.70301e-05 6.71905e-21 0.00130475 1.78251e-22 0.00146969)
(0.00157631 7.93176e-05 -4.38867e-22 0.001243 1.34445e-22 0.00140958)
(0.00152738 6.26848e-05 -8.10901e-23 0.00119219 -6.82513e-22 0.00135973)
(0.00148862 4.69196e-05 -6.13354e-23 0.00115183 6.38171e-22 0.00132018)
(0.00143689 3.08824e-05 -2.7252e-21 0.0011075 -1.25245e-22 0.00127218)
(0.00137408 1.55724e-05 -2.47906e-21 0.00106012 5.53952e-23 0.0012171)
(0.00127275 1.85642e-06 -2.23684e-21 0.000992257 -1.47121e-23 0.00113251)
(0.00112353 -7.96807e-06 -1.66884e-21 0.000895245 1.89943e-23 0.00100938)