/*--------------------------------*- C++ -*----------------------------------*\
| =========                 |                                                 |
| \\      /  F ield         | OpenFOAM: The Open Source CFD Toolbox           |
|  \\    /   O peration     | Version:  2312                                  |
|   \\  /    A nd           | Website:  www.openfoam.com                      |
|    \\/     M anipulation  |                                                 |
\*---------------------------------------------------------------------------*/
FoamFile
{
    version     2.0;
    format      ascii;
    arch        "LSB;label=32;scalar=64";
    class       volScalarField;
    location    "200";
    object      turbulenceProperties:k;
}
// * * * * * * * * * * * * * * * * * * * * * * * * * * * * * * * * * * * * * //

dimensions      [0 2 -2 0 0 0 0];

internalField   nonuniform List<scalar> 
11040
(
1.36541
2.7947
4.27927
5.5133
7.12791
11.7975
9.3531
8.08205
7.89165
11.0253
14.4771
18.2758
21.6959
23.6672
25.3644
26.8458
27.9742
28.6737
28.9251
28.7408
28.0466
26.8858
25.5702
24.2783
22.9933
21.667
20.292
18.8735
17.4093
15.8968
14.3371
12.7363
11.106
9.45548
7.76046
5.76799
3.72324
2.76237
1.88707
1.33822
0.850976
0.189486
0.232534
0.386733
0.970232
2.50517
6.92719
13.1012
20.1006
29.9748
41.3975
44.6333
41.9597
36.957
31.7057
27.2523
23.6474
20.7135
18.3019
16.3131
14.6461
13.2126
12.0751
11.1216
10.274
9.54786
8.94731
8.44846
8.02254
7.65118
7.32313
7.03203
6.77175
6.53566
6.31301
6.08583
5.78969
5.39126
5.04546
4.79415
4.41745
7.29965
0.108954
0.0824575
0.0709572
0.0527563
0.0418869
0.366675
1.41066
3.44805
6.62294
10.7602
15.5215
20.4471
25.0307
28.6036
30.6127
30.8715
29.6239
27.4167
24.838
22.3076
20.0293
18.1232
16.6324
15.4083
14.3652
13.4657
12.6742
11.9662
11.3271
10.75
10.2302
9.76418
9.34848
8.97561
8.64044
8.33172
8.05208
7.7582
7.51466
6.83969
7.73572
0.0768668
0.0703562
0.0606051
0.0527522
0.0446751
0.027348
0.0154477
0.0294674
0.134156
0.336866
0.633571
1.04458
1.69855
2.81329
4.5886
7.07633
10.0956
13.2425
16.024
18.0244
19.0586
19.2074
18.7501
17.969
17.0729
16.1882
15.3668
14.6253
13.9648
13.3788
12.8571
12.3891
11.966
11.5778
11.2204
10.8869
10.5851
10.2712
10.0206
9.31494
9.71466
0.0532605
0.0513847
0.047299
0.0410354
0.0358648
0.0310149
0.02239
0.0116803
0.00468922
0.0135103
0.00171213
0.00188393
0.000461493
0.000731217
0.00373948
0.0284948
0.129129
0.403029
1.01242
2.12376
3.83582
5.95108
8.06473
9.91797
11.3855
12.4461
13.1419
13.5399
13.7148
13.734
13.6523
13.5102
13.3364
13.1477
12.9559
12.7623
12.5768
12.3617
12.1896
11.6807
11.7952
0.0362626
0.0364847
0.0352788
0.0323949
0.0290616
0.0265839
0.0246964
0.021945
0.0180689
0.0128872
0.00954969
0.00686404
0.00499797
0.00351072
0.00140357
0.00104589
9.05168e-07
0.0337358
0.0579376
0.00158023
0.0117408
0.0743727
0.284823
0.698528
1.3508
2.23711
3.32114
4.54069
5.82424
7.10303
8.3194
9.43059
10.4096
11.2455
11.936
12.4802
12.8919
13.1601
13.3525
13.2796
13.4775
0.0251748
0.0258221
0.026331
0.0258886
0.0244745
0.0225533
0.0206973
0.0190716
0.0174538
0.0157531
0.0135807
0.0116089
0.00975795
0.00826029
0.00718547
0.00633059
0.00538571
0.00398807
0.00247382
5.63288e-07
0.00456262
0.000301857
0.00286302
0.00711131
0.0127014
0.0184378
0.0397733
0.120003
0.294451
0.603974
1.08889
1.78043
2.69465
3.82976
5.15705
6.61542
8.1226
9.59002
10.9531
12.0275
13.2602
0.0176564
0.0182277
0.0190083
0.0193354
0.0190264
0.0182481
0.0172191
0.0160577
0.0147674
0.013357
0.0118321
0.0102575
0.00873589
0.00741036
0.00637442
0.00561843
0.00508644
0.00462499
0.00429074
0.00380506
0.0030216
0.00206587
0.00138141
4.23781e-05
0.00140586
0.00417884
0.000596322
0.0188658
0.00184643
0.0100126
0.0139261
0.0255673
0.067992
0.179012
0.412738
0.836922
1.51785
2.51494
3.85851
5.39798
7.62642
0.0125204
0.012931
0.0136058
0.0141806
0.0144382
0.0143429
0.0139544
0.0133391
0.0125267
0.0115332
0.0103997
0.00918574
0.00797363
0.00686327
0.00592891
0.00519151
0.00461941
0.0041755
0.00381985
0.00356181
0.00331102
0.00296492
0.0026173
0.0022098
0.0018633
0.0014405
0.00103912
0.000484581
8.42379e-06
0.000755318
0.00151597
0.00395327
0.000302542
0.00151374
0.0036381
0.00951878
0.0300054
0.0959646
0.267675
0.581184
1.38975
0.00893455
0.00920905
0.00969436
0.0102076
0.0106035
0.0108063
0.0108001
0.0106006
0.0102201
0.00966649
0.00896197
0.00814546
0.00727398
0.0064209
0.00565084
0.00499842
0.00446412
0.00403003
0.00367306
0.00338025
0.00313923
0.0029345
0.00274304
0.00259247
0.00243144
0.00227945
0.00208668
0.00193069
0.0016108
0.00133711
0.00104211
0.00068105
0.000337395
0.000169081
0.000225791
0.000626373
0.00214022
0.00571581
0.00134121
0.00459093
0.0391887
0.00640325
0.00658209
0.00690735
0.00729161
0.00765724
0.00794565
0.00811866
0.00815781
0.00805586
0.00781144
0.00743607
0.0069494
0.00638375
0.00578675
0.00520723
0.00468141
0.00422482
0.00383606
0.00350651
0.00322517
0.00298317
0.00277707
0.00259923
0.00244439
0.00231247
0.00220466
0.00211444
0.00203965
0.00198032
0.00190828
0.00182565
0.00169876
0.00151408
0.00124735
0.00096611
0.000635484
0.000212716
3.17523e-05
7.71925e-05
0.000167917
0.00188327
0.00459924
0.00471395
0.00492492
0.00518946
0.0054696
0.00573132
0.00594386
0.00608387
0.00613467
0.00608658
0.00593849
0.00569752
0.0053787
0.0050082
0.004617
0.0042336
0.00387737
0.00355684
0.00327311
0.00302301
0.00280311
0.00261285
0.0024483
0.00230298
0.00217577
0.00206628
0.00197363
0.00189469
0.00182859
0.00177299
0.00172619
0.00168524
0.00164881
0.00161711
0.00156762
0.00148951
0.00134037
0.00105985
0.000720735
0.000429431
5.37367e-05
0.00330653
0.00337954
0.00351462
0.00369011
0.00388805
0.00409129
0.00428105
0.00443945
0.00455091
0.00460254
0.00458784
0.00450501
0.00435905
0.00416166
0.0039292
0.00367982
0.00342943
0.00318893
0.00296426
0.00275743
0.00256968
0.00240429
0.00226007
0.00213202
0.00201842
0.00191843
0.00183091
0.00175404
0.00168604
0.00162556
0.0015714
0.00152276
0.00147882
0.00144073
0.00140782
0.00138009
0.00135591
0.00133338
0.00127595
0.00122243
0.00101533
0.00237687
0.00242304
0.0025091
0.00262338
0.00275739
0.00290289
0.00304977
0.00318711
0.00330405
0.00339035
0.00343835
0.00344339
0.00340392
0.00332356
0.00320912
0.00306985
0.00291565
0.00275525
0.00259515
0.0024394
0.0022916
0.00215724
0.00203751
0.00192947
0.00183217
0.00174498
0.00166702
0.00159717
0.00153423
0.00147704
0.00142459
0.00137597
0.0013304
0.00128725
0.00124619
0.00120754
0.00117138
0.00113942
0.00111186
0.00108525
0.00106965
0.00170687
0.00173611
0.001791
0.0018648
0.0019536
0.00205354
0.00215938
0.00226512
0.00236431
0.00245012
0.00251663
0.00255907
0.00257419
0.00256114
0.00252167
0.00245947
0.00237932
0.00228639
0.00218549
0.00208036
0.00197484
0.00187469
0.0017823
0.00169653
0.00161744
0.00154492
0.00147856
0.0014178
0.001362
0.00131046
0.00126253
0.00121759
0.00117508
0.00113445
0.00109524
0.00105719
0.00102003
0.000983391
0.000947791
0.000910292
0.000883194
0.00122414
0.00124283
0.0012779
0.00132525
0.00138329
0.00145026
0.0015234
0.00159948
0.00167496
0.00174583
0.00180819
0.00185861
0.00189408
0.00191263
0.00191347
0.00189736
0.00186603
0.00182175
0.00176718
0.00170479
0.00163742
0.00156977
0.00150444
0.0014414
0.00138141
0.0013248
0.00127161
0.00122171
0.00117485
0.00113072
0.00108901
0.00104937
0.00101148
0.000975002
0.000939647
0.00090525
0.000871612
0.000838443
0.000805606
0.000771755
0.000742418
0.00087866
0.000890593
0.000912981
0.000943261
0.000980985
0.00102535
0.00107482
0.00112762
0.00118186
0.0012353
0.00128564
0.00133069
0.00136834
0.00139678
0.0014147
0.00142145
0.00141722
0.00140275
0.00137906
0.00134732
0.00130916
0.0012678
0.0012254
0.00118245
0.00113992
0.00109839
0.00105817
0.00101936
0.000982042
0.00094617
0.00091166
0.000878382
0.00084623
0.000815028
0.00078463
0.000754988
0.000726026
0.000697593
0.000669586
0.000641472
0.000616235
0.000638656
0.000646339
0.000660921
0.0006807
0.000705717
0.000735581
0.000769342
0.000805956
0.000844352
0.000883274
0.000921374
0.000957341
0.000989844
0.0010176
0.00103947
0.00105464
0.0010626
0.00106324
0.00105683
0.00104375
0.00102467
0.0010015
0.000975778
0.000948093
0.000919369
0.000890214
0.000861022
0.000832061
0.000803522
0.000775517
0.000748105
0.000721293
0.0006951
0.00066947
0.000644359
0.0006198
0.000595811
0.000572306
0.000549264
0.000526484
0.000505606
0.000475024
0.000480125
0.000489978
0.000503372
0.000520545
0.000541303
0.000564998
0.000590948
0.000618492
0.000646867
0.000675242
0.000702808
0.000728722
0.000752109
0.000772148
0.000788131
0.000799524
0.000805976
0.000807352
0.00080372
0.00079531
0.000783125
0.000768144
0.000750865
0.000732018
0.000712119
0.000691544
0.000670581
0.000649458
0.000628339
0.000607342
0.000586545
0.000566026
0.000545795
0.00052586
0.000506292
0.000487158
0.000468399
0.000450019
0.000432001
0.00041518
0.000361626
0.00036509
0.000371896
0.000381187
0.000393274
0.000408047
0.000425033
0.000443749
0.000463754
0.000484552
0.000505605
0.000526396
0.000546384
0.00056499
0.000581644
0.000595824
0.000607083
0.000615067
0.000619533
0.000620343
0.000617499
0.000611537
0.000603059
0.000592427
0.000580172
0.000566701
0.000552321
0.000537296
0.000521842
0.000506137
0.000490313
0.000474466
0.000458702
0.000443062
0.000427579
0.000412332
0.000397412
0.000382769
0.000368416
0.000354389
0.000341218
0.00028024
0.000282598
0.000287366
0.000293937
0.000302625
0.000313363
0.000325786
0.000339538
0.000354306
0.000369747
0.000385494
0.000401196
0.000416493
0.00043099
0.00044429
0.000456018
0.000465832
0.000473438
0.000478604
0.000481157
0.000481
0.00047838
0.000473661
0.000467124
0.000459145
0.000450012
0.000439971
0.000429237
0.000417996
0.0004064
0.000394579
0.000382627
0.000370652
0.000358703
0.000346823
0.000335084
0.000323586
0.000312281
0.000301199
0.000290337
0.000280266
0.000220293
0.000221902
0.000225287
0.000230018
0.000236381
0.000244325
0.000253565
0.000263826
0.000274875
0.000286464
0.000298328
0.000310223
0.000321896
0.000333072
0.000343475
0.000352835
0.000360903
0.000367451
0.000372291
0.000375263
0.000376254
0.000375365
0.000372815
0.000368794
0.000363571
0.000357357
0.000350332
0.000342664
0.000334503
0.000325976
0.000317195
0.000308242
0.000299214
0.000290159
0.000281118
0.000272154
0.000263362
0.000254695
0.000246195
0.00023779
0.00023023
0.000175182
0.000176276
0.000178703
0.000182161
0.000186894
0.000192863
0.000199835
0.000207598
0.00021597
0.000224766
0.00023379
0.000242861
0.000251798
0.000260405
0.000268482
0.000275836
0.000282284
0.000287655
0.000291802
0.000294595
0.000295931
0.000295853
0.000294497
0.000291994
0.000288528
0.000284246
0.00027928
0.000273764
0.000267814
0.000261534
0.000255012
0.000248318
0.000241531
0.000234694
0.000227842
0.000221028
0.000214333
0.000207716
0.000201225
0.000194725
0.00018914
0.000140642
0.000141379
0.000143137
0.000145698
0.00014927
0.000153815
0.000159145
0.000165089
0.000171504
0.000178247
0.000185168
0.000192132
0.000199002
0.000205636
0.000211887
0.000217616
0.000222686
0.000226973
0.000230365
0.00023276
0.000234076
0.000234334
0.000233622
0.00023203
0.000229683
0.000226686
0.000223141
0.000219145
0.00021479
0.000210154
0.000205303
0.0002003
0.000195201
0.000190046
0.000184863
0.000179693
0.000174607
0.000169565
0.000164619
0.000159589
0.00015552
0.000113808
0.0001143
0.000115583
0.000117505
0.000120235
0.000123738
0.000127859
0.000132459
0.000137425
0.000142643
0.000147996
0.00015338
0.000158692
0.000163824
0.000168667
0.000173118
0.000177078
0.000180453
0.000183159
0.000185121
0.000186276
0.000186633
0.000186255
0.000185206
0.000183576
0.000181441
0.000178876
0.000175952
0.000172737
0.000169289
0.000165666
0.000161906
0.000158064
0.000154167
0.000150239
0.00014631
0.00014244
0.000138594
0.000134822
0.000130923
0.000127989
9.27065e-05
9.30291e-05
9.39732e-05
9.54347e-05
9.7547e-05
0.000100277
0.000103497
0.000107093
0.000110972
0.000115045
0.000119217
0.000123408
0.000127538
0.000131524
0.000135285
0.000138743
0.000141824
0.000144459
0.000146586
0.000148148
0.0001491
0.000149447
0.00014924
0.000148525
0.000147366
0.000145818
0.000143935
0.000141769
0.000139372
0.00013679
0.000134068
0.000131232
0.00012833
0.000125376
0.000122393
0.000119404
0.000116454
0.000113516
0.000110636
0.000107609
0.000105509
7.59395e-05
7.61464e-05
7.68477e-05
7.79734e-05
7.96272e-05
8.17774e-05
8.43179e-05
8.71548e-05
9.0212e-05
9.34158e-05
9.66927e-05
9.99771e-05
0.000103207
0.000106318
0.000109249
0.000111941
0.000114338
0.000116388
0.000118048
0.000119273
0.000120031
0.000120329
0.000120208
0.000119701
0.000118856
0.000117711
0.000116307
0.000114683
0.00011288
0.000110934
0.000108874
0.000106726
0.00010452
0.000102271
9.99944e-05
9.77102e-05
9.54524e-05
9.31994e-05
9.09916e-05
8.8635e-05
8.71357e-05
6.24976e-05
6.26265e-05
6.31535e-05
6.40328e-05
6.53431e-05
6.70544e-05
6.90778e-05
7.13354e-05
7.37642e-05
7.6304e-05
7.88956e-05
8.14864e-05
8.40271e-05
8.6468e-05
8.87614e-05
9.08625e-05
9.273e-05
9.43249e-05
9.56143e-05
9.65663e-05
9.71573e-05
9.73966e-05
9.73167e-05
9.69426e-05
9.63095e-05
9.54471e-05
9.43855e-05
9.31566e-05
9.17894e-05
9.03101e-05
8.87409e-05
8.71056e-05
8.54191e-05
8.36991e-05
8.1956e-05
8.02036e-05
7.84688e-05
7.6735e-05
7.50369e-05
7.31996e-05
7.21298e-05
5.16386e-05
5.17159e-05
5.21177e-05
5.28151e-05
5.3866e-05
5.5242e-05
5.68684e-05
5.86803e-05
6.06251e-05
6.26533e-05
6.47169e-05
6.67736e-05
6.87839e-05
7.0709e-05
7.25119e-05
7.41584e-05
7.56171e-05
7.6859e-05
7.78598e-05
7.85961e-05
7.90513e-05
7.92351e-05
7.91757e-05
7.88921e-05
7.841e-05
7.77528e-05
7.69432e-05
7.60042e-05
7.49579e-05
7.38246e-05
7.26208e-05
7.13659e-05
7.00698e-05
6.87476e-05
6.74046e-05
6.60532e-05
6.47139e-05
6.33741e-05
6.2062e-05
6.06263e-05
5.98595e-05
4.28077e-05
4.28518e-05
4.3164e-05
4.37264e-05
4.458e-05
4.56979e-05
4.70172e-05
4.84834e-05
5.00526e-05
5.16839e-05
5.33381e-05
5.49809e-05
5.65809e-05
5.81073e-05
5.95315e-05
6.08271e-05
6.19705e-05
6.294e-05
6.37177e-05
6.42866e-05
6.46348e-05
6.47724e-05
6.47241e-05
6.45037e-05
6.41312e-05
6.36242e-05
6.29998e-05
6.22762e-05
6.14699e-05
6.05963e-05
5.96691e-05
5.87004e-05
5.77016e-05
5.66794e-05
5.56407e-05
5.45949e-05
5.35569e-05
5.25176e-05
5.14999e-05
5.03765e-05
4.98241e-05
3.5584e-05
3.56082e-05
3.58565e-05
3.63183e-05
3.70209e-05
3.79387e-05
3.90188e-05
4.02151e-05
4.14907e-05
4.28119e-05
4.41467e-05
4.5467e-05
4.67478e-05
4.79648e-05
4.90956e-05
5.01201e-05
5.10202e-05
5.178e-05
5.23862e-05
5.28268e-05
5.30932e-05
5.3195e-05
5.31535e-05
5.29794e-05
5.26876e-05
5.22925e-05
5.18075e-05
5.12461e-05
5.06214e-05
4.99446e-05
4.92261e-05
4.84743e-05
4.7701e-05
4.69063e-05
4.60998e-05
4.5287e-05
4.44787e-05
4.36688e-05
4.28757e-05
4.19949e-05
4.15921e-05
2.96453e-05
2.96586e-05
2.98617e-05
3.02482e-05
3.08344e-05
3.15961e-05
3.24883e-05
3.34723e-05
3.45171e-05
3.55945e-05
3.66785e-05
3.77462e-05
3.87776e-05
3.97533e-05
4.0656e-05
4.14703e-05
4.21825e-05
4.27806e-05
4.32552e-05
4.35975e-05
4.38015e-05
4.38765e-05
4.38413e-05
4.37033e-05
4.34746e-05
4.31661e-05
4.27882e-05
4.23516e-05
4.18659e-05
4.13395e-05
4.07806e-05
4.01948e-05
3.95935e-05
3.89758e-05
3.83477e-05
3.77138e-05
3.70827e-05
3.64504e-05
3.58313e-05
3.51407e-05
3.4846e-05
2.47413e-05
2.47501e-05
2.49214e-05
2.52515e-05
2.57472e-05
2.6386e-05
2.71298e-05
2.79456e-05
2.88075e-05
2.96922e-05
3.05781e-05
3.14469e-05
3.22823e-05
3.30691e-05
3.37939e-05
3.44447e-05
3.50114e-05
3.5485e-05
3.58587e-05
3.61263e-05
3.62837e-05
3.63395e-05
3.63097e-05
3.62001e-05
3.60197e-05
3.57773e-05
3.54812e-05
3.51395e-05
3.47597e-05
3.43482e-05
3.39115e-05
3.34544e-05
3.29843e-05
3.25028e-05
3.20113e-05
3.15152e-05
3.10207e-05
3.05253e-05
3.00398e-05
2.94974e-05
2.92764e-05
2.06763e-05
2.06846e-05
2.08342e-05
2.11215e-05
2.15463e-05
2.20876e-05
2.2713e-05
2.33947e-05
2.41108e-05
2.48419e-05
2.55706e-05
2.62819e-05
2.69626e-05
2.7601e-05
2.81864e-05
2.87099e-05
2.91637e-05
2.95415e-05
2.98384e-05
3.00501e-05
3.01737e-05
3.02166e-05
3.01932e-05
3.01074e-05
2.99665e-05
2.97776e-05
2.95472e-05
2.92813e-05
2.89858e-05
2.86657e-05
2.83259e-05
2.79698e-05
2.76039e-05
2.72292e-05
2.68452e-05
2.64577e-05
2.6071e-05
2.56833e-05
2.53033e-05
2.48777e-05
2.47151e-05
1.72956e-05
1.73061e-05
1.74409e-05
1.76956e-05
1.80642e-05
1.85274e-05
1.90575e-05
1.96311e-05
2.023e-05
2.08383e-05
2.14414e-05
2.20273e-05
2.25856e-05
2.31067e-05
2.35827e-05
2.40066e-05
2.43728e-05
2.46764e-05
2.49141e-05
2.50831e-05
2.51811e-05
2.52149e-05
2.51965e-05
2.5129e-05
2.50181e-05
2.48693e-05
2.46881e-05
2.44793e-05
2.42472e-05
2.39959e-05
2.37289e-05
2.34495e-05
2.31619e-05
2.28682e-05
2.25663e-05
2.22624e-05
2.19585e-05
2.16536e-05
2.13544e-05
2.10207e-05
2.08924e-05
1.44763e-05
1.44905e-05
1.46155e-05
1.48449e-05
1.51683e-05
1.55678e-05
1.60203e-05
1.65062e-05
1.70101e-05
1.75191e-05
1.80214e-05
1.85072e-05
1.8968e-05
1.93965e-05
1.97863e-05
2.01324e-05
2.04304e-05
2.06772e-05
2.08705e-05
2.10085e-05
2.109e-05
2.11204e-05
2.11105e-05
2.10623e-05
2.098e-05
2.08682e-05
2.07309e-05
2.05719e-05
2.03943e-05
2.02017e-05
1.99968e-05
1.97822e-05
1.95592e-05
1.93333e-05
1.91012e-05
1.88646e-05
1.86277e-05
1.83898e-05
1.81566e-05
1.78948e-05
1.78061e-05
1.21198e-05
1.21387e-05
1.22571e-05
1.2466e-05
1.27519e-05
1.30989e-05
1.34874e-05
1.39012e-05
1.43276e-05
1.4756e-05
1.51767e-05
1.5582e-05
1.5965e-05
1.63199e-05
1.66419e-05
1.69268e-05
1.71716e-05
1.73739e-05
1.75321e-05
1.7645e-05
1.77113e-05
1.77359e-05
1.77279e-05
1.76889e-05
1.76225e-05
1.75325e-05
1.74224e-05
1.72953e-05
1.71542e-05
1.70016e-05
1.68398e-05
1.66706e-05
1.64952e-05
1.63174e-05
1.61358e-05
1.59496e-05
1.57633e-05
1.55769e-05
1.53934e-05
1.51911e-05
1.51101e-05
1.01467e-05
1.01708e-05
1.02846e-05
1.04763e-05
1.07301e-05
1.10321e-05
1.13666e-05
1.17205e-05
1.20832e-05
1.24459e-05
1.28006e-05
1.3141e-05
1.34615e-05
1.37578e-05
1.40261e-05
1.42635e-05
1.44679e-05
1.46376e-05
1.47721e-05
1.4871e-05
1.49338e-05
1.49644e-05
1.49708e-05
1.49534e-05
1.49144e-05
1.48565e-05
1.47823e-05
1.46941e-05
1.4594e-05
1.44837e-05
1.4365e-05
1.42392e-05
1.41073e-05
1.3973e-05
1.38349e-05
1.3692e-05
1.35488e-05
1.34046e-05
1.32636e-05
1.31023e-05
1.30634e-05
8.49246e-06
8.52145e-06
8.63189e-06
8.80842e-06
9.03406e-06
9.29698e-06
9.58481e-06
9.88718e-06
1.0196e-05
1.05043e-05
1.08055e-05
1.10938e-05
1.13648e-05
1.16144e-05
1.18399e-05
1.20389e-05
1.22097e-05
1.23508e-05
1.24613e-05
1.25406e-05
1.2588e-05
1.26068e-05
1.26043e-05
1.25816e-05
1.25412e-05
1.24861e-05
1.2419e-05
1.23422e-05
1.22574e-05
1.21661e-05
1.20697e-05
1.19693e-05
1.18654e-05
1.17611e-05
1.16548e-05
1.15452e-05
1.14356e-05
1.13263e-05
1.12176e-05
1.11024e-05
1.10409e-05
7.10469e-06
7.13755e-06
7.24407e-06
7.40587e-06
7.60613e-06
7.83522e-06
8.08323e-06
8.34168e-06
8.60415e-06
8.86537e-06
9.12064e-06
9.36573e-06
9.59683e-06
9.81051e-06
1.00041e-05
1.01761e-05
1.03258e-05
1.04533e-05
1.05591e-05
1.06437e-05
1.07071e-05
1.07513e-05
1.07812e-05
1.07957e-05
1.07955e-05
1.0782e-05
1.07564e-05
1.07198e-05
1.06734e-05
1.06182e-05
1.05555e-05
1.04865e-05
1.0412e-05
1.03348e-05
1.02538e-05
1.01681e-05
1.00817e-05
9.99359e-06
9.9087e-06
9.80362e-06
9.80936e-06
5.9415e-06
5.97696e-06
6.07766e-06
6.22254e-06
6.39671e-06
6.59407e-06
6.80761e-06
7.03028e-06
7.25596e-06
7.4793e-06
7.69597e-06
7.90294e-06
8.09804e-06
8.27927e-06
8.44433e-06
8.5905e-06
8.71509e-06
8.81587e-06
8.89166e-06
8.94251e-06
8.9681e-06
8.97214e-06
8.96112e-06
8.93742e-06
8.90387e-06
8.86315e-06
8.81743e-06
8.76833e-06
8.71693e-06
8.6641e-06
8.61059e-06
8.557e-06
8.50311e-06
8.45025e-06
8.3977e-06
8.34407e-06
8.29037e-06
8.23778e-06
8.18302e-06
8.13572e-06
8.06884e-06
4.96828e-06
5.00615e-06
5.10048e-06
5.22683e-06
5.37231e-06
5.53456e-06
5.71074e-06
5.89742e-06
6.09079e-06
6.28601e-06
6.47751e-06
6.66013e-06
6.8303e-06
6.98663e-06
7.12991e-06
7.26226e-06
7.38605e-06
7.50284e-06
7.61306e-06
7.71577e-06
7.80966e-06
7.89306e-06
7.96682e-06
8.02769e-06
8.07447e-06
8.10718e-06
8.1262e-06
8.13208e-06
8.12577e-06
8.1085e-06
8.08148e-06
8.04581e-06
8.00311e-06
7.95401e-06
7.90131e-06
7.84359e-06
7.78248e-06
7.71836e-06
7.65919e-06
7.56987e-06
7.62733e-06
4.15382e-06
4.1925e-06
4.28055e-06
4.39153e-06
4.51323e-06
4.64373e-06
4.78109e-06
4.92417e-06
5.07309e-06
5.228e-06
5.38791e-06
5.5498e-06
5.70834e-06
5.85634e-06
5.98616e-06
6.09135e-06
6.16812e-06
6.21581e-06
6.23641e-06
6.23439e-06
6.2119e-06
6.17508e-06
6.13096e-06
6.08397e-06
6.03701e-06
5.99221e-06
5.95106e-06
5.91464e-06
5.88352e-06
5.85788e-06
5.83759e-06
5.82236e-06
5.81157e-06
5.80459e-06
5.80206e-06
5.80261e-06
5.80263e-06
5.80645e-06
5.80461e-06
5.83101e-06
5.73875e-06
3.47125e-06
3.50274e-06
3.576e-06
3.66855e-06
3.77279e-06
3.88755e-06
4.0083e-06
4.12953e-06
4.24698e-06
4.35874e-06
4.46578e-06
4.57192e-06
4.68277e-06
4.80417e-06
4.94055e-06
5.09385e-06
5.26296e-06
5.44388e-06
5.63074e-06
5.8159e-06
5.99502e-06
6.16158e-06
6.31177e-06
6.44024e-06
6.54559e-06
6.62834e-06
6.68972e-06
6.73124e-06
6.75467e-06
6.76185e-06
6.75451e-06
6.73422e-06
6.70286e-06
6.6614e-06
6.61196e-06
6.55425e-06
6.49085e-06
6.42017e-06
6.35553e-06
6.24304e-06
6.34298e-06
2.90628e-06
2.92449e-06
2.96879e-06
3.02089e-06
3.0821e-06
3.16051e-06
3.25979e-06
3.37919e-06
3.51358e-06
3.65337e-06
3.78601e-06
3.89853e-06
3.98039e-06
4.0256e-06
4.03387e-06
4.01014e-06
3.96292e-06
3.90197e-06
3.83574e-06
3.77209e-06
3.70919e-06
3.64799e-06
3.5878e-06
3.53203e-06
3.48136e-06
3.43637e-06
3.3984e-06
3.3693e-06
3.35051e-06
3.34261e-06
3.34548e-06
3.35894e-06
3.3825e-06
3.41567e-06
3.45839e-06
3.51e-06
3.56682e-06
3.63299e-06
3.69525e-06
3.80345e-06
3.74359e-06
2.45716e-06
2.47829e-06
2.51132e-06
2.53137e-06
2.53774e-06
2.53955e-06
2.54478e-06
2.56141e-06
2.59865e-06
2.66677e-06
2.77579e-06
2.9332e-06
3.14148e-06
3.39673e-06
3.68913e-06
4.00475e-06
4.32792e-06
4.64342e-06
4.93883e-06
5.20234e-06
5.43505e-06
5.63673e-06
5.803e-06
5.93439e-06
6.0353e-06
6.11055e-06
6.16348e-06
6.19961e-06
6.21987e-06
6.22897e-06
6.22934e-06
6.22122e-06
6.20502e-06
6.1804e-06
6.14844e-06
6.10931e-06
6.06505e-06
6.01273e-06
5.96228e-06
5.88587e-06
5.90337e-06
2.10827e-06
2.14512e-06
2.20161e-06
2.24961e-06
2.2761e-06
2.27714e-06
2.25129e-06
2.20184e-06
2.13766e-06
2.07191e-06
2.01963e-06
1.99463e-06
2.00579e-06
2.05441e-06
2.13414e-06
2.23341e-06
2.33898e-06
2.439e-06
2.52497e-06
2.5924e-06
2.63734e-06
2.65891e-06
2.64802e-06
2.61543e-06
2.56896e-06
2.51327e-06
2.45516e-06
2.40701e-06
2.3806e-06
2.37289e-06
2.37425e-06
2.38059e-06
2.39089e-06
2.40443e-06
2.42065e-06
2.43803e-06
2.45777e-06
2.47264e-06
2.50841e-06
2.45481e-06
2.74884e-06
1.81516e-06
1.80814e-06
1.86811e-06
2.05892e-06
2.40751e-06
2.88393e-06
3.43043e-06
3.9936e-06
4.534e-06
5.02493e-06
5.4494e-06
5.7977e-06
6.06609e-06
6.25533e-06
6.36979e-06
6.41663e-06
6.40492e-06
6.34463e-06
6.24586e-06
6.11688e-06
5.9676e-06
5.83385e-06
5.69433e-06
5.55809e-06
5.42826e-06
5.30458e-06
5.19071e-06
5.06909e-06
4.93649e-06
4.80395e-06
4.67437e-06
4.54735e-06
4.42051e-06
4.29035e-06
4.15595e-06
4.01565e-06
3.86676e-06
3.7072e-06
3.52466e-06
3.40342e-06
2.9693e-06
26.0584
24.1849
19.62
16.4048
14.0543
12.0842
10.3087
8.66407
7.12654
5.70044
4.39144
3.21713
2.19902
1.36085
0.731269
0.319326
0.0968866
0.0158881
0.000214386
0.00121817
0.000161142
1.28322e-05
3.56068e-05
6.07636e-05
7.98386e-05
7.74533e-05
6.45853e-05
5.4517e-05
4.85486e-05
4.4157e-05
4.00066e-05
3.58358e-05
3.17472e-05
2.78563e-05
2.4234e-05
2.09268e-05
1.79858e-05
1.54269e-05
1.32586e-05
1.14536e-05
9.97826e-06
8.78814e-06
7.83029e-06
7.04984e-06
6.39588e-06
5.90627e-06
5.42844e-06
4.90473e-06
4.41065e-06
3.96062e-06
3.54291e-06
3.15691e-06
2.79745e-06
2.46974e-06
2.17243e-06
1.90749e-06
1.67082e-06
1.51359e-06
1.31878e-06
1.17406e-06
1.0756e-06
1.00985e-06
9.8051e-07
9.74479e-07
9.97752e-07
1.04084e-06
1.09543e-06
1.15401e-06
1.22593e-06
1.28585e-06
1.38155e-06
1.40061e-06
1.57657e-06
1.49604e-06
14.6875
22.9209
22.0786
19.4492
17.0604
15.0508
13.2832
11.6554
10.1157
8.64603
7.23835
5.89445
4.62585
3.4533
2.40708
1.52498
0.837343
0.374598
0.120076
0.0222988
0.000824762
0.00110133
0.000277848
3.95579e-05
9.86913e-06
4.08436e-05
5.45358e-05
5.96714e-05
5.49239e-05
4.71126e-05
4.09621e-05
3.62089e-05
3.21638e-05
2.84459e-05
2.49213e-05
2.15985e-05
1.85498e-05
1.58325e-05
1.34914e-05
1.15359e-05
9.94267e-06
8.66887e-06
7.65732e-06
6.84987e-06
6.17249e-06
5.79965e-06
5.3273e-06
4.87539e-06
4.42239e-06
3.99166e-06
3.58745e-06
3.21392e-06
2.86267e-06
2.53993e-06
2.24429e-06
1.97869e-06
1.74043e-06
1.51631e-06
1.29242e-06
1.15084e-06
1.05697e-06
9.95893e-07
9.69704e-07
9.6792e-07
9.94719e-07
1.04085e-06
1.09716e-06
1.15665e-06
1.22876e-06
1.2896e-06
1.38341e-06
1.40727e-06
1.57553e-06
1.50856e-06
3.86129
8.75101
13.3385
14.7851
14.6943
14.0215
13.156
12.2174
11.2277
10.191
9.11014
7.99256
6.85111
5.70318
4.57166
3.48759
2.48411
1.61131
0.913083
0.424837
0.146044
0.0315977
0.0021159
0.000132229
0.000115117
2.35124e-06
2.30194e-06
2.78513e-05
3.94514e-05
4.53578e-05
4.55789e-05
4.03119e-05
3.44803e-05
2.95232e-05
2.54993e-05
2.20684e-05
1.90248e-05
1.62981e-05
1.3879e-05
1.17875e-05
1.00348e-05
8.61774e-06
7.50207e-06
6.63645e-06
5.94502e-06
5.42006e-06
5.019e-06
4.65388e-06
4.2621e-06
3.85972e-06
3.47199e-06
3.11295e-06
2.77782e-06
2.46714e-06
2.18154e-06
1.92322e-06
1.69636e-06
1.42623e-06
1.26118e-06
1.12925e-06
1.03857e-06
9.8316e-07
9.60451e-07
9.64617e-07
9.94976e-07
1.04298e-06
1.10054e-06
1.16084e-06
1.23298e-06
1.29476e-06
1.38721e-06
1.41617e-06
1.57555e-06
1.52255e-06
10.5624
7.187
4.29028
5.238
7.01658
8.21078
8.89164
9.23645
9.32928
9.20946
8.9008
8.42826
7.81532
7.08282
6.25092
5.34546
4.39242
3.43352
2.51181
1.67711
0.985701
0.483755
0.181592
0.047009
0.00571508
4.31305e-07
0.000767879
2.84366e-05
8.18916e-06
9.3091e-06
2.56349e-05
3.27383e-05
3.57466e-05
3.35001e-05
2.88282e-05
2.40407e-05
2.00455e-05
1.6788e-05
1.4114e-05
1.19279e-05
1.01317e-05
8.65417e-06
7.45014e-06
6.48859e-06
5.74143e-06
5.07985e-06
4.61406e-06
4.27109e-06
3.94467e-06
3.5941e-06
3.2351e-06
2.89326e-06
2.57644e-06
2.2833e-06
2.01483e-06
1.77207e-06
1.55671e-06
1.38684e-06
1.23482e-06
1.10836e-06
1.02058e-06
9.70962e-07
9.5326e-07
9.63448e-07
9.97234e-07
1.04646e-06
1.10471e-06
1.16578e-06
1.23805e-06
1.30105e-06
1.39252e-06
1.42638e-06
1.57715e-06
1.53608e-06
13.6565
13.2076
10.8031
7.73296
4.91466
2.93274
2.4286
3.20121
4.23379
5.13804
5.8251
6.28633
6.52846
6.56033
6.39154
6.04068
5.52575
4.88048
4.13846
3.33507
2.51755
1.74205
1.0713
0.559361
0.232622
0.0686097
0.0119503
0.000222657
1.9459e-06
4.61297e-05
3.18104e-05
1.68087e-05
1.12916e-05
1.95267e-05
2.38106e-05
2.53094e-05
2.34558e-05
1.974e-05
1.59831e-05
1.28362e-05
1.03732e-05
8.54627e-06
7.22681e-06
6.25457e-06
5.5231e-06
4.87364e-06
4.3498e-06
3.9701e-06
3.67039e-06
3.37835e-06
3.0694e-06
2.7588e-06
2.4645e-06
2.19074e-06
1.93914e-06
1.71055e-06
1.50552e-06
1.34233e-06
1.20144e-06
1.08484e-06
1.00192e-06
9.58353e-07
9.47224e-07
9.63557e-07
1.00049e-06
1.05057e-06
1.10919e-06
1.17101e-06
1.24349e-06
1.30803e-06
1.39878e-06
1.43729e-06
1.58008e-06
1.54925e-06
14.7569
15.1364
14.5824
13.3316
11.5552
9.48326
7.35543
5.3203
3.47429
1.94207
1.20283
1.78894
2.7208
3.55602
4.20383
4.64204
4.86148
4.8733
4.68887
4.32668
3.81513
3.19164
2.50391
1.80892
1.17364
0.658676
0.30392
0.105126
0.0240984
0.0018259
8.60487e-05
0.00014259
6.54672e-06
4.33938e-06
3.69003e-06
1.06841e-05
1.26734e-05
1.51708e-05
1.64124e-05
1.52603e-05
1.27027e-05
1.00344e-05
7.82285e-06
6.2043e-06
5.14672e-06
4.44801e-06
3.9619e-06
3.6201e-06
3.36568e-06
3.13346e-06
2.88008e-06
2.60484e-06
2.33112e-06
2.07528e-06
1.84349e-06
1.63463e-06
1.44654e-06
1.28909e-06
1.16119e-06
1.05797e-06
9.83054e-07
9.45464e-07
9.41494e-07
9.64486e-07
1.00482e-06
1.05576e-06
1.11463e-06
1.17712e-06
1.24972e-06
1.31588e-06
1.40591e-06
1.44867e-06
1.58412e-06
1.5627e-06
13.728
13.5713
13.3111
13.0379
12.6414
12.0462
11.2008
10.1025
8.7928
7.33991
5.81571
4.30031
2.85709
1.55923
0.704044
1.16275
1.99155
2.7105
3.25191
3.59113
3.72204
3.65046
3.39325
2.97945
2.45186
1.86516
1.28571
0.780214
0.399418
0.161402
0.0477484
0.00839933
7.93129e-05
0.000715051
3.75329e-05
2.07472e-06
8.00551e-06
8.78539e-06
7.36127e-06
6.92686e-06
8.16139e-06
9.37477e-06
9.08595e-06
7.67738e-06
6.07581e-06
4.73261e-06
3.76682e-06
3.16535e-06
2.8404e-06
2.67523e-06
2.55481e-06
2.40095e-06
2.19811e-06
1.96944e-06
1.74619e-06
1.54552e-06
1.3709e-06
1.22705e-06
1.11439e-06
1.02703e-06
9.64122e-07
9.33388e-07
9.3581e-07
9.6544e-07
1.01019e-06
1.06279e-06
1.12208e-06
1.18506e-06
1.25756e-06
1.32508e-06
1.41416e-06
1.46045e-06
1.5891e-06
1.57669e-06
7.98284
7.64604
7.39911
7.37462
7.52231
7.81272
8.16316
8.47548
8.6484
8.60284
8.2914
7.70724
6.87907
5.86022
4.71116
3.51115
2.32484
1.22411
0.441679
0.909689
1.62479
2.20884
2.61402
2.82208
2.83141
2.65543
2.3233
1.88126
1.38924
0.915635
0.520879
0.246954
0.0890705
0.0226903
0.00255307
1.29399e-08
0.000590529
0.00010812
2.72126e-06
6.07306e-06
6.28795e-06
4.00004e-06
3.42339e-06
3.42553e-06
4.51059e-06
4.99512e-06
4.55324e-06
3.75202e-06
2.99083e-06
2.45276e-06
2.13795e-06
1.9678e-06
1.86187e-06
1.75445e-06
1.62046e-06
1.46734e-06
1.31385e-06
1.17884e-06
1.07294e-06
9.95995e-07
9.45269e-07
9.22893e-07
9.30554e-07
9.65245e-07
1.01501e-06
1.07102e-06
1.13193e-06
1.19569e-06
1.26788e-06
1.33625e-06
1.42399e-06
1.47277e-06
1.59501e-06
1.59117e-06
1.58132
1.49379
1.41899
1.41362
1.47285
1.60696
1.8427
2.19489
2.66655
3.24384
3.88787
4.53256
5.0932
5.48381
5.63372
5.50738
5.10341
4.46513
3.64889
2.73109
1.78398
0.878442
0.281201
0.812473
1.39704
1.83621
2.09815
2.17219
2.06635
1.80906
1.44661
1.04303
0.663538
0.360584
0.159608
0.0538418
0.0123162
0.000932327
0.000346012
0.000444996
4.64282e-05
2.49638e-07
1.21608e-06
2.841e-06
2.50412e-06
4.18086e-06
3.31965e-06
1.98932e-06
2.49916e-06
2.73315e-06
2.49666e-06
2.11761e-06
1.78485e-06
1.54565e-06
1.38419e-06
1.27078e-06
1.1815e-06
1.10199e-06
1.03073e-06
9.72867e-07
9.34295e-07
9.1937e-07
9.30804e-07
9.68192e-07
1.02172e-06
1.08152e-06
1.14473e-06
1.20931e-06
1.28073e-06
1.34925e-06
1.43544e-06
1.48582e-06
1.60222e-06
1.60645e-06
0.046176
0.0380328
0.0308802
0.0274297
0.0265239
0.02813
0.0343025
0.0488183