/*--------------------------------*- C++ -*----------------------------------*\
| =========                 |                                                 |
| \\      /  F ield         | OpenFOAM: The Open Source CFD Toolbox           |
|  \\    /   O peration     | Version:  2312                                  |
|   \\  /    A nd           | Website:  www.openfoam.com                      |
|    \\/     M anipulation  |                                                 |
\*---------------------------------------------------------------------------*/
FoamFile
{
    version     2.0;
    format      ascii;
    arch        "LSB;label=32;scalar=64";
    class       volVectorField;
    location    "200";
    object      U;
}
// * * * * * * * * * * * * * * * * * * * * * * * * * * * * * * * * * * * * * //

dimensions      [0 1 -1 0 0 0 0];

internalField   nonuniform List<vector> 
11040
(
(1.87144 35.4029 4.9694e-19)
(10.4802 38.3546 -3.79986e-17)
(14.9302 29.886 -4.3288e-17)
(13.6609 17.5909 3.67351e-18)
(8.71436 7.18401 0)
(3.30841 1.01658 1.15297e-17)
(0.579946 -1.76619 3.22263e-16)
(1.09808 -3.12144 8.49268e-16)
(1.64295 -3.11178 -3.1748e-16)
(2.14816 -2.83758 -3.14723e-16)
(3.64288 -1.92808 -3.87206e-16)
(5.42528 -0.976107 8.02155e-19)
(7.36522 -0.208708 8.76376e-17)
(9.23783 0.286854 6.43215e-17)
(10.7936 0.507706 2.01432e-19)
(11.9754 0.529456 3.14816e-18)
(12.8272 0.426389 -4.00208e-20)
(13.4131 0.248898 0)
(13.7772 0.0264455 1.25492e-20)
(13.9494 -0.220893 2.4453e-18)
(13.9183 -0.479019 -1.53469e-19)
(13.6756 -0.707371 -1.55788e-17)
(13.353 -0.877222 7.67603e-19)
(13.0254 -1.00133 -2.46758e-17)
(12.677 -1.1012 2.24962e-17)
(12.2829 -1.1843 6.50915e-19)
(11.8392 -1.25052 1.94703e-17)
(11.3494 -1.29916 0)
(10.812 -1.3299 0)
(10.2236 -1.34232 -1.49469e-17)
(9.57998 -1.33554 -2.85201e-17)
(8.87808 -1.30872 0)
(8.11627 -1.26067 -4.53461e-17)
(7.29319 -1.19016 0)
(6.4098 -1.09396 -1.69729e-17)
(5.48946 -0.972337 -1.37775e-17)
(4.54093 -0.836488 0)
(3.58849 -0.698357 0)
(2.50609 -0.514686 1.66765e-21)
(1.76273 -0.336563 -2.11799e-21)
(-1.27736 -0.832488 3.04598e-18)
(10.6385 30.1616 -4.63268e-19)
(24.3652 31.0447 4.48282e-18)
(32.9207 28.9957 5.16475e-17)
(34.8223 25.7184 2.08139e-17)
(32.3234 21.1235 0)
(27.6134 15.6736 3.0792e-17)
(22.4564 10.4432 4.03525e-17)
(18.3408 6.48084 -6.03648e-17)
(15.3899 3.93664 6.25088e-17)
(13.9591 2.56151 5.84544e-19)
(14.0809 2.04153 5.63303e-17)
(14.767 1.92353 -8.29002e-17)
(15.5279 1.86583 -3.95805e-17)
(16.2571 1.74599 -2.68958e-17)
(16.88 1.55007 1.04989e-17)
(17.3457 1.29754 6.27412e-18)
(17.654 1.00634 8.46717e-18)
(17.8244 0.690107 -1.2737e-18)
(17.8651 0.360031 1.2608e-18)
(17.7747 0.0281055 -1.34716e-18)
(17.5256 -0.2948 4.11974e-18)
(17.1405 -0.572549 8.5471e-18)
(16.6871 -0.782439 -7.07195e-18)
(16.2307 -0.948977 -1.32102e-17)
(15.7746 -1.08991 -1.30407e-17)
(15.2979 -1.20674 1.22094e-17)
(14.7917 -1.30021 0)
(14.2524 -1.37153 0)
(13.6754 -1.42148 9.00305e-18)
(13.0547 -1.45007 7.91755e-18)
(12.3848 -1.45699 7.61609e-18)
(11.6603 -1.44185 1.30968e-17)
(10.8766 -1.40385 1.13826e-17)
(10.0284 -1.34233 0)
(9.11016 -1.25609 -5.85791e-20)
(8.12614 -1.14588 6.31617e-18)
(7.06969 -1.01265 0)
(6.00186 -0.866793 0)
(4.81578 -0.683697 0)
(3.9901 -0.515594 0)
(1.94188 -0.709677 -2.52751e-18)
(12.768 26.7068 6.59052e-19)
(20.6004 29.5408 2.11212e-17)
(27.9522 29.1595 -2.07815e-17)
(33.4976 27.6427 -1.83766e-17)
(37.0105 25.5271 1.64047e-17)
(38.4706 22.5854 -1.51679e-18)
(38.0852 18.9818 -2.05793e-17)
(36.5348 15.2325 -5.56095e-18)
(34.5198 11.7895 6.34564e-18)
(32.4998 8.91477 0)
(30.6164 6.66002 0)
(28.9446 5.03397 4.73579e-17)
(27.5346 3.90749 0)
(26.411 3.08345 0)
(25.5355 2.4185 -9.66774e-18)
(24.843 1.84449 -6.81839e-18)
(24.2751 1.33102 -2.16863e-18)
(23.7762 0.862237 -7.78236e-18)
(23.2837 0.428074 -3.58795e-18)
(22.7397 0.0241308 1.78248e-18)
(22.0808 -0.351435 -5.90984e-18)
(21.3292 -0.671289 -2.75534e-18)
(20.5783 -0.916341 3.78057e-18)
(19.8727 -1.11214 8.96385e-18)
(19.2056 -1.27588 9.46439e-18)
(18.5506 -1.41005 -8.23768e-18)
(17.8905 -1.51639 0)
(17.2158 -1.59671 0)
(16.5177 -1.6521 -6.34354e-18)
(15.7889 -1.68313 5.74583e-18)
(15.0226 -1.68993 -1.02577e-17)
(14.2129 -1.67261 3.19877e-20)
(13.3549 -1.63084 0)
(12.4421 -1.56426 -6.697e-18)
(11.4681 -1.47262 5.44816e-18)
(10.4369 -1.35701 6.05982e-20)
(9.34257 -1.2187 -4.72559e-20)
(8.22492 -1.06572 -1.82454e-18)
(6.98453 -0.886625 8.52585e-22)
(6.04859 -0.732498 3.68444e-19)
(4.10051 -0.970396 8.63305e-19)
(14.6083 23.4124 -7.53541e-19)
(20.3109 26.1959 -8.61056e-18)
(26.0433 26.7123 1.05996e-17)
(30.7965 25.5711 1.22897e-17)
(34.642 23.8572 -1.50578e-17)
(37.8368 21.9959 -1.87116e-17)
(40.2689 19.8353 3.59354e-18)
(41.7216 17.2611 0)
(42.2105 14.5128 0)
(41.986 11.9234 1.62462e-17)
(41.3578 9.70198 0)
(40.5205 7.93114 -1.59487e-17)
(39.5703 6.54721 0)
(38.5395 5.40607 -1.39749e-17)
(37.3936 4.38936 0)
(36.0889 3.44455 6.39948e-18)
(34.6228 2.55991 8.9853e-18)
(33.0397 1.74043 1.05568e-20)
(31.4024 0.994796 2.8053e-18)
(29.7768 0.333494 1.21789e-18)
(28.198 -0.238652 1.10583e-18)
(26.7462 -0.694193 4.34689e-18)
(25.4922 -1.02319 0)
(24.4059 -1.26824 6.60854e-18)
(23.4324 -1.46069 9.09653e-19)
(22.5189 -1.61199 1.36254e-17)
(21.6333 -1.72835 -7.7682e-19)
(20.7589 -1.81437 5.40595e-18)
(19.8845 -1.87282 -4.91035e-18)
(19.0008 -1.90509 -8.83214e-18)
(18.0991 -1.91162 3.92396e-18)
(17.171 -1.89254 -1.37922e-17)
(16.2092 -1.84756 -1.68669e-19)
(15.2044 -1.77632 1.3857e-19)
(14.1491 -1.67898 -5.49454e-20)
(13.046 -1.55682 1.3352e-19)
(11.8899 -1.4127 -4.25681e-20)
(10.7092 -1.25228 -3.87462e-20)
(9.41164 -1.07702 7.80998e-21)
(8.35605 -0.917403 2.05382e-21)
(6.43888 -1.04884 0)
(16.4962 20.6568 0)
(20.432 23.0325 -1.30032e-18)
(24.8809 24.1263 -1.67752e-17)
(29.0695 23.7873 -2.386e-17)
(32.517 22.5367 2.4882e-17)
(35.3439 20.8787 -1.06626e-17)
(37.7605 18.9791 0)
(39.7144 16.8388 0)
(41.037 14.5494 -1.23317e-17)
(41.6804 12.2879 -2.59881e-17)
(41.7541 10.2179 -1.26323e-17)
(41.443 8.45518 0)
(40.9545 7.02606 0)
(40.4452 5.85897 1.41947e-17)
(39.9628 4.85521 -2.76819e-18)
(39.4748 3.94938 1.00809e-17)
(38.9219 3.10702 -4.82787e-18)
(38.2452 2.30994 0)
(37.3881 1.54901 0)
(36.3054 0.826617 0)
(34.9575 0.150135 -1.82724e-18)
(33.4294 -0.435244 -3.38347e-18)
(31.8755 -0.89172 0)
(30.3693 -1.24514 5.93031e-18)
(28.9462 -1.52297 -1.03573e-17)
(27.6129 -1.73893 -6.39026e-18)
(26.3628 -1.90201 -3.5221e-18)
(25.1842 -2.02014 -4.8724e-18)
(24.0594 -2.09914 3.90447e-18)
(22.9682 -2.14277 7.01771e-18)
(21.891 -2.15335 0)
(20.8108 -2.13255 5.59198e-18)
(19.714 -2.08157 -1.59651e-19)
(18.5872 -2.0013 -3.65467e-20)
(17.421 -1.8933 0)
(16.2169 -1.75993 -2.40565e-18)
(14.9703 -1.60595 0)
(13.7017 -1.43547 1.03866e-18)
(12.3279 -1.25858 0)
(11.1482 -1.09082 -1.56311e-20)
(9.21255 -1.08792 5.47564e-19)
(18.0058 18.3675 0)
(20.8221 20.2603 0)
(24.0694 21.5868 5.35711e-18)
(27.4949 21.9755 1.19153e-17)
(30.6723 21.4453 -2.19203e-17)
(33.3785 20.241 1.7679e-17)
(35.623 18.5938 -8.6877e-18)
(37.4238 16.6466 1.42121e-17)
(38.7263 14.5261 5.76285e-19)
(39.4868 12.3924 1.60124e-17)
(39.7486 10.4017 1.06967e-17)
(39.6316 8.66487 0)
(39.2958 7.22131 -4.77315e-18)
(38.8881 6.02818 9.42083e-18)
(38.4879 5.00325 -1.78437e-17)
(38.1091 4.08347 -4.22774e-18)
(37.7418 3.2356 -3.94214e-18)
(37.3744 2.44331 3.94579e-18)
(36.9926 1.697 -8.46721e-20)
(36.5735 0.99481 -2.33995e-19)
(36.0775 0.33687 -9.57394e-19)
(35.4783 -0.244569 1.37951e-18)
(34.782 -0.718753 0)
(33.996 -1.10639 1.15894e-18)
(33.1262 -1.42943 6.69825e-18)
(32.1744 -1.69713 -1.07133e-18)
(31.1468 -1.91358 2.86009e-18)
(30.0556 -2.08221 9.02446e-20)
(28.9138 -2.20598 8.14812e-19)
(27.7331 -2.28706 -2.76225e-18)
(26.5226 -2.32729 2.8502e-19)
(25.2885 -2.32848 -2.88746e-19)
(24.0345 -2.29234 0)
(22.7569 -2.22048 3.22147e-18)
(21.452 -2.11515 -2.42859e-19)
(20.1222 -1.97947 1.86955e-20)
(18.7634 -1.81966 1.48216e-18)
(17.3871 -1.6397 -2.56578e-20)
(15.9178 -1.4544 -9.83057e-21)
(14.6132 -1.2724 -1.35508e-19)
(12.6207 -1.16359 -3.95606e-19)
(19.3069 16.4455 5.98918e-20)
(21.4084 17.9097 -7.63701e-19)
(23.7962 19.1352 2.09436e-18)
(26.4806 19.8048 0)
(29.2235 19.7731 0)
(31.7678 19.1064 -7.34983e-18)
(33.9828 17.9387 7.73429e-18)
(35.807 16.3869 -1.50497e-17)
(37.1822 14.5701 -7.89795e-18)
(38.0691 12.6437 8.01129e-18)
(38.4918 10.7686 -7.85866e-18)
(38.5384 9.06318 7.88484e-18)
(38.3327 7.58807 -8.03821e-18)
(37.999 6.33911 3.48332e-19)
(37.6218 5.26389 1.44712e-17)
(37.2313 4.30774 -2.8201e-19)
(36.8282 3.43561 6.5883e-18)
(36.4085 2.62817 -3.08084e-18)
(35.9705 1.87368 6.12338e-18)
(35.5135 1.16757 -1.39674e-18)
(35.0385 0.509687 -6.59836e-19)
(34.5628 -0.0702102 1.20729e-18)
(34.0976 -0.547909 2.24082e-18)
(33.6427 -0.942621 0)
(33.1954 -1.27514 1.82601e-18)
(32.7413 -1.55663 -1.82397e-18)
(32.2636 -1.79211 7.5265e-19)
(31.7464 -1.98494 2.09342e-18)
(31.1744 -2.13734 0)
(30.5328 -2.25042 -2.26101e-18)
(29.808 -2.32424 -1.52402e-18)
(28.9886 -2.35862 -2.185e-18)
(28.0673 -2.35345 1.46903e-18)
(27.0365 -2.30911 2.44869e-18)
(25.8939 -2.22706 1.98145e-18)
(24.6483 -2.11023 -1.4569e-18)
(23.3079 -1.96518 -1.13904e-18)
(21.894 -1.79633 -7.1877e-19)
(20.3547 -1.62029 -3.63278e-19)
(18.9361 -1.43597 0)
(16.8721 -1.2999 -2.34609e-19)
(20.4048 14.8133 -3.98133e-20)
(22.0328 15.9366 5.86409e-19)
(23.8214 16.9639 -1.73864e-18)
(25.8612 17.7047 -3.08425e-18)
(28.0773 17.9879 -7.61275e-18)
(30.2943 17.7571 7.35804e-18)
(32.3652 17.0485 1.43394e-17)
(34.1851 15.9303 1.1981e-17)
(35.6671 14.4918 3.49766e-19)
(36.7433 12.8564 -1.21892e-17)
(37.3973 11.1676 1.87735e-17)
(37.676 9.54767 0)
(37.6686 8.07976 -1.83527e-17)
(37.4789 6.79601 1.22619e-17)
(37.1926 5.67701 5.65945e-18)
(36.8559 4.68322 -1.68771e-17)
(36.4827 3.78157 -5.43199e-18)
(36.0741 2.95132 2.52381e-18)
(35.6287 2.17963 2.40143e-18)
(35.1445 1.4599 5.59774e-18)
(34.6188 0.791185 -8.58464e-18)
(34.0761 0.200988 2.22301e-18)
(33.5431 -0.290373 1.92239e-18)
(33.0272 -0.699073 0)
(32.5369 -1.04257 1.59664e-18)
(32.0726 -1.33318 -1.40907e-18)
(31.6312 -1.57746 1.41098e-18)
(31.2101 -1.7797 -1.70879e-20)
(30.8063 -1.94303 -2.17841e-18)
(30.4142 -2.06927 -4.51466e-19)
(30.025 -2.15919 4.24643e-18)
(29.6265 -2.21287 1.06639e-18)
(29.2023 -2.22988 -9.47804e-19)
(28.7304 -2.21001 -2.07837e-18)
(28.1848 -2.15359 -1.71493e-19)
(27.5411 -2.06209 -6.95955e-20)
(26.7712 -1.94052 0)
(25.8642 -1.79196 -6.70079e-20)
(24.7448 -1.63764 2.6131e-19)
(23.6117 -1.45646 1.09051e-21)
(21.8214 -1.37007 1.69744e-19)
(21.3426 13.4045 3.43714e-20)
(22.6425 14.2644 0)
(24.021 15.0822 -1.46901e-18)
(25.5726 15.7554 0)
(27.306 16.1571 7.82062e-20)
(29.137 16.1973 -1.72439e-18)
(30.9524 15.8479 -8.39075e-18)
(32.6474 15.1257 0)
(34.1283 14.0764 9.82809e-19)
(35.3138 12.7809 -1.8289e-17)
(36.1556 11.35 -5.24642e-18)
(36.6579 9.89373 1.41331e-17)
(36.8688 8.50232 4.96529e-18)
(36.8616 7.23217 -4.53916e-18)
(36.7116 6.09534 4.44562e-18)
(36.4729 5.07522 4.52091e-18)
(36.1728 4.14868 8.34202e-18)
(35.8217 3.29772 -1.02615e-17)
(35.4233 2.51016 2.03214e-18)
(34.9779 1.77871 0)
(34.4833 1.10148 4.27536e-19)
(33.9614 0.503461 -8.21671e-19)
(33.4366 0.00168889 6.35193e-19)
(32.9148 -0.418496 -2.33578e-19)
(32.4042 -0.771466 3.93655e-18)
(31.9073 -1.06927 -2.53302e-18)
(31.4237 -1.31952 0)
(30.9535 -1.52717 9.41404e-19)
(30.4982 -1.6961 1.7313e-18)
(30.0597 -1.82875 7.69757e-19)
(29.6405 -1.92661 -2.11353e-18)
(29.2436 -1.99039 6.71609e-19)
(28.8713 -2.02007 0)
(28.5241 -2.01545 9.04059e-19)
(28.198 -1.97654 -1.42705e-18)
(27.8862 -1.90367 6.00184e-20)
(27.5663 -1.80066 -1.23277e-19)
(27.224 -1.66652 1.11158e-18)
(26.773 -1.52662 2.81127e-20)
(26.3068 -1.33954 0)
(25.3915 -1.27691 3.94875e-20)
(22.1403 12.1752 -2.34711e-20)
(23.2012 12.8332 2.46174e-20)
(24.2927 13.4685 3.06172e-19)
(25.4902 14.0288 2.41149e-18)
(26.8289 14.436 9.89953e-19)
(28.2843 14.6143 -3.41262e-18)
(29.7947 14.5116 0)
(31.2806 14.1068 1.14973e-17)
(32.6598 13.4083 -1.8278e-17)
(33.8524 12.4553 6.72254e-18)
(34.7957 11.3198 -6.61057e-18)
(35.4639 10.0855 -1.11446e-17)
(35.8673 8.83462 1.45431e-17)
(36.0444 7.63331 -1.0687e-17)
(36.0492 6.51728 1.39908e-17)
(35.9316 5.49394 -3.7047e-18)
(35.7256 4.5555 -3.45873e-18)
(35.4503 3.69094 0)
(35.1153 2.89094 0)
(34.7258 2.149 0)
(34.2832 1.46283 5.02072e-18)
(33.8096 0.855897 -5.42474e-18)
(33.3275 0.342997 6.22123e-19)
(32.8415 -0.09003 0)
(32.3593 -0.454995 0)
(31.8845 -0.762792 -9.0907e-19)
(31.4173 -1.02121 1.89423e-18)
(30.9574 -1.23555 -1.66174e-18)
(30.5049 -1.40982 1.48836e-18)
(30.0604 -1.54708 -1.33854e-18)
(29.6248 -1.64955 5.6017e-19)
(29.2 -1.71887 -1.60818e-18)
(28.7889 -1.75631 -9.09176e-19)
(28.3953 -1.76284 1.54798e-20)
(28.0244 -1.7394 -6.44497e-19)
(27.6846 -1.68635 5.80545e-19)
(27.3787 -1.60678 -9.25283e-19)
(27.1155 -1.49664 -5.2156e-19)
(26.8672 -1.37507 1.6605e-20)
(26.6638 -1.20206 -1.63687e-20)
(26.3727 -1.10176 -3.29069e-20)
(22.8169 11.0932 0)
(23.6972 11.5958 5.42084e-19)
(24.5815 12.0821 3.60378e-19)
(25.5248 12.5257 3.12463e-18)
(26.564 12.882 -5.86025e-18)
(27.7021 13.0998 4.42416e-18)
(28.915 13.1319 2.92451e-18)
(30.1567 12.944 -4.45515e-18)
(31.3676 12.5203 1.33359e-17)
(32.4816 11.87 1.00661e-17)
(33.4372 11.0283 5.73203e-18)
(34.1943 10.0477 0)
(34.7373 8.98992 0)
(35.0739 7.91621 1.10123e-17)
(35.2317 6.87223 -1.39121e-17)
(35.2463 5.88318 -2.81196e-18)
(35.1495 4.9575 7.81826e-18)
(34.9639 4.09483 -1.79139e-17)
(34.704 3.29194 2.64111e-18)
(34.3792 2.54542 3.41792e-18)
(33.9945 1.85417 -3.49592e-18)
(33.5728 1.24117 4.05189e-18)
(33.1365 0.71992 -4.09112e-18)
(32.6907 0.276423 4.5521e-19)
(32.2432 -0.0992723 8.49268e-19)
(31.799 -0.416694 -3.86323e-18)
(31.36 -0.68348 2.62722e-19)
(30.927 -0.905162 2.04484e-19)
(30.5005 -1.08594 5.49841e-20)
(30.081 -1.22907 1.10625e-18)
(29.6691 -1.33709 9.80844e-19)
(29.2655 -1.41195 8.67258e-19)
(28.871 -1.45532 7.52788e-19)
(28.4865 -1.46881 -1.59555e-18)
(28.1134 -1.45411 8.33447e-19)
(27.7561 -1.41272 4.3454e-19)
(27.418 -1.34809 1.0486e-18)
(27.1037 -1.259 0)
(26.8141 -1.15495 4.28599e-19)
(26.5564 -1.01624 -2.33093e-20)
(26.3413 -0.886286 4.74176e-21)
(23.3876 10.136 0)
(24.1267 10.5188 -1.57199e-20)
(24.8556 10.8872 0)
(25.6134 11.2284 0)
(26.4309 11.5173 -1.42583e-18)
(27.3198 11.723 0)
(28.276 11.8119 -6.33906e-18)
(29.2785 11.7523 0)
(30.2924 11.5204 -1.99807e-17)
(31.2712 11.1067 2.68731e-17)
(32.1646 10.5217 -5.62792e-18)
(32.9323 9.79056 -1.88896e-17)
(33.5468 8.95093 -8.25612e-18)
(33.9952 8.04836 -1.53391e-19)
(34.2819 7.1254 1.2215e-17)
(34.424 6.2145 -8.2056e-18)
(34.4431 5.33579 1.22996e-17)
(34.3589 4.49974 1.56884e-19)
(34.1871 3.71099 -5.54325e-18)
(33.9394 2.9713 8.51919e-18)
(33.6232 2.28249 -4.86111e-20)
(33.2616 1.66845 -4.06235e-19)
(32.877 1.14265 -6.08209e-18)
(32.4761 0.691748 5.75398e-18)
(32.0674 0.307222 1.61652e-18)
(31.657 -0.0190756 -2.67362e-18)
(31.2482 -0.29425 0)
(30.8433 -0.523825 3.72216e-18)
(30.4436 -0.71212 -3.98004e-18)
(30.0504 -0.86257 1.88285e-19)
(29.6647 -0.977946 8.98173e-19)
(29.2878 -1.06049 -7.1787e-19)
(28.9207 -1.11211 0)
(28.5639 -1.13464 5.42238e-19)
(28.2181 -1.12979 4.45649e-20)
(27.8856 -1.09924 2.50669e-19)
(27.5679 -1.04564 -6.02746e-19)
(27.264 -0.969865 1.42237e-19)
(26.9748 -0.875846 -3.81401e-19)
(26.7035 -0.758906 3.9653e-20)
(26.4567 -0.631801 0)
(23.8656 9.28688 3.58199e-20)
(24.4915 9.5767 -8.30814e-20)
(25.1 9.85294 0)
(25.7189 10.1097 0)
(26.3722 10.333 1.5644e-18)
(27.0723 10.5048 2.07776e-18)
(27.8231 10.6037 1.22285e-17)
(28.6181 10.6062 -3.15936e-18)
(29.4398 10.4906 0)
(30.2606 10.2414 -2.66494e-18)
(31.0453 9.85456 1.09107e-18)
(31.7612 9.33747 3.15833e-18)
(32.3801 8.70769 0)
(32.8807 7.99253 1.51976e-17)
(33.2525 7.22327 -1.26685e-17)
(33.4966 6.42956 1.24296e-17)
(33.6215 5.63534 -1.4036e-17)
(33.6392 4.8578 -1.297e-18)
(33.562 4.1084 0)
(33.4007 3.39458 0)
(33.1634 2.72216 -7.11878e-19)
(32.8716 2.11705 3.37962e-19)
(32.5472 1.59402 3.01676e-19)
(32.1992 1.14143 0)
(31.8368 0.752315 -4.52101e-18)
(31.4669 0.419953 -4.26063e-18)
(31.0944 0.138151 3.65178e-18)
(30.7225 -0.0982893 -4.10912e-18)
(30.3536 -0.293631 0)
(29.9895 -0.451394 6.68944e-19)
(29.6319 -0.574522 -2.6482e-18)
(29.2822 -0.665507 3.55728e-18)
(28.9419 -0.726511 -5.92235e-19)
(28.6116 -0.75963 0)
(28.2925 -0.766638 3.82457e-19)
(27.9868 -0.74926 -2.1574e-20)
(27.696 -0.709558 2.74394e-19)
(27.4193 -0.648962 0)
(27.1569 -0.569691 8.17661e-20)
(26.9122 -0.471069 -1.11542e-19)
(26.6825 -0.363126 3.00872e-20)
(24.263 8.53285 -6.01957e-20)
(24.796 8.75053 2.95775e-20)
(25.3085 8.95515 0)
(25.8205 9.14481 -7.71685e-19)
(26.35 9.31137 -1.31355e-18)
(26.908 9.44461 -1.74361e-18)
(27.5005 9.5316 -2.1974e-18)
(28.1272 9.55672 -2.66961e-18)
(28.7813 9.50353 1.19431e-17)
(29.4482 9.35747 1.65261e-18)
(30.1063 9.10953 -1.27878e-17)
(30.7329 8.75707 2.01052e-17)
(31.3056 8.30504 1.16901e-18)
(31.803 7.76615 -1.95904e-17)
(32.209 7.15883 -2.47791e-18)
(32.515 6.50436 0)
(32.7189 5.82362 -2.16385e-18)
(32.8238 5.13479 4.60709e-18)
(32.8357 4.45261 -1.10494e-17)
(32.7617 3.78847 2.6984e-19)
(32.6083 3.15179 8.63198e-18)
(32.3931 2.57051 6.93976e-18)
(32.1363 2.06154 -6.78666e-19)
(31.8486 1.6161 -7.34195e-18)
(31.5401 1.22923 0)
(31.2184 0.895849 0)
(30.8893 0.610924 0)
(30.5572 0.369927 0)
(30.2251 0.168926 0)
(29.8956 0.00451786 5.99303e-19)
(29.5708 -0.126247 2.65379e-19)
(29.2525 -0.225972 -1.89052e-18)
(28.9424 -0.296955 9.18409e-19)
(28.6412 -0.341492 -3.39785e-19)
(28.3502 -0.361469 1.02616e-18)
(28.0715 -0.358688 -1.47239e-18)
(27.8066 -0.335103 3.13655e-19)
(27.5551 -0.292442 2.07028e-19)
(27.3177 -0.232687 -3.02672e-19)
(27.0972 -0.155891 -8.0186e-20)
(26.8926 -0.0714304 1.26366e-19)
(24.5903 7.86373 0)
(25.0459 8.02529 -4.88876e-19)
(25.4801 8.17447 1.17638e-18)
(25.9077 8.31164 6.4866e-19)
(26.3422 8.43191 -1.56366e-18)
(26.7923 8.52945 2.01569e-18)
(27.2639 8.59661 -8.39962e-18)
(27.7593 8.62349 2.93713e-18)
(28.2765 8.59881 -8.12373e-18)
(28.8088 8.51134 8.11535e-18)
(29.3439 8.35205 2.76223e-18)
(29.8683 8.11509 -2.32025e-17)
(30.3665 7.79864 1.03846e-17)
(30.8213 7.40643 2.11205e-18)
(31.2175 6.947 1.26927e-17)
(31.5429 6.43264 0)
(31.7899 5.87783 1.84058e-18)
(31.955 5.29743 -3.41367e-18)
(32.0379 4.70541 1.80467e-18)
(32.041 4.11413 0)
(31.9673 3.53468 0)
(31.8289 2.99555 -5.2452e-18)
(31.6426 2.5155 6.78614e-18)
(31.4198 2.08929 1.54448e-19)
(31.1706 1.7144 0)
(30.9031 1.38765 -4.89439e-18)
(30.6237 1.10544 9.48912e-18)
(30.3374 0.864252 -4.5831e-18)
(30.0479 0.660757 2.09153e-18)
(29.7584 0.491922 -1.96836e-18)
(29.4714 0.354984 -2.19804e-19)
(29.1891 0.247414 1.90087e-18)
(28.9132 0.166913 -3.2714e-19)
(28.6448 0.11112 -1.67416e-18)
(28.3851 0.0780939 -5.39811e-19)
(28.1361 0.0660244 1.01451e-18)
(27.8992 0.0730105 -4.74707e-19)
(27.6741 0.0971112 3.63933e-19)
(27.4615 0.136441 -2.32909e-20)
(27.2637 0.190548 2.13383e-19)
(27.0803 0.251423 -1.69139e-19)
(24.857 7.27094 -4.10454e-20)
(25.247 7.3888 4.05504e-20)
(25.6164 7.49532 -1.10198e-18)
(25.976 7.59208 0)
(26.3357 7.67589 1.31132e-18)
(26.7027 7.7434 -1.68929e-18)
(27.082 7.79012 3.82286e-18)
(27.4762 7.80987 2.49066e-18)
(27.8857 7.79528 0)
(28.3074 7.73844 0)
(28.7351 7.63218 1.56036e-17)
(29.1611 7.47066 -1.44429e-17)
(29.576 7.24998 0)
(29.9679 6.96926 -4.43407e-18)
(30.3248 6.63104 -1.88282e-17)
(30.6355 6.24106 1.64017e-17)
(30.891 5.80754 -9.82197e-18)
(31.0847 5.34041 1.10566e-17)
(31.2125 4.85034 0)
(31.2726 4.34803 0)
(31.2648 3.84387 0)
(31.195 3.3646 0)
(31.0756 2.92935 8.17719e-18)
(30.9171 2.53629 -9.06225e-18)
(30.7288 2.18525 0)
(30.5186 1.87502 0)
(30.2928 1.60357 3.53929e-18)
(30.0565 1.36858 -3.54893e-18)
(29.8142 1.16759 -3.19408e-18)
(29.569 0.998154 3.04532e-18)
(29.324 0.857902 8.36891e-20)
(29.0814 0.744578 0)
(28.8432 0.656051 -1.46381e-19)
(28.6106 0.590051 1.00243e-18)
(28.385 0.544702 -9.58164e-20)
(28.1681 0.518288 -7.95198e-19)
(27.9612 0.509034 0)
(27.7641 0.514918 0)
(27.5775 0.53423 -2.95122e-19)
(27.403 0.566313 1.53837e-19)
(27.2405 0.604689 0)
(25.0713 6.746 2.94777e-20)
(25.4053 6.82995 0)
(25.72 6.90404 4.39774e-19)
(26.0234 6.97024 -1.21424e-18)
(26.3231 7.0262 -3.92394e-18)
(26.6247 7.07 1.87611e-18)
(26.9324 7.099 -2.68301e-18)
(27.2487 7.10933 0)
(27.5744 7.09617 0)
(27.9086 7.05422 1.0522e-17)
(28.248 6.9783 -1.2021e-17)
(28.5885 6.86378 8.97577e-19)
(28.9248 6.70677 8.93458e-18)
(29.2493 6.50498 -9.77364e-18)
(29.5536 6.25803 -1.45422e-18)
(29.8292 5.96776 1.86098e-18)
(30.0681 5.63816 -1.23822e-17)
(30.2633 5.27487 2.78924e-17)
(30.4095 4.88481 -1.39618e-17)
(30.5029 4.47578 -1.23987e-17)
(30.5407 4.05604 1.39227e-17)
(30.5242 3.64844 0)
(30.4611 3.2707 -7.74988e-19)
(30.36 2.92335 0)
(30.2286 2.60799 -5.99417e-18)
(30.0738 2.32497 1.20409e-17)
(29.9014 2.0737 1.11029e-17)
(29.7163 1.85301 -5.39816e-18)
(29.5227 1.66137 0)
(29.3241 1.49706 -2.19264e-18)
(29.1232 1.35827 2.15783e-18)
(28.9226 1.24315 0)
(28.7243 1.14991 0)
(28.5295 1.07652 -2.59382e-20)
(28.3397 1.02132 0)
(28.1563 0.982769 -1.32569e-19)
(27.9808 0.959334 0)
(27.8128 0.949048 0)
(27.6529 0.950471 1.27633e-19)
(27.5026 0.962868 -8.0062e-22)
(27.3618 0.981416 -1.66558e-19)
(25.2348 6.30304 -1.55965e-19)
(25.5226 6.36206 1.27878e-18)
(25.7926 6.41281 -9.92852e-19)
(26.051 6.45713 1.08035e-18)
(26.3035 6.49307 -1.27292e-18)
(26.5549 6.5196 9.25992e-18)
(26.8083 6.53515 2.46929e-18)
(27.066 6.53717 -1.9065e-17)
(27.3291 6.52247 1.14001e-18)
(27.5973 6.48745 8.54279e-18)
(27.8689 6.42847 1.92072e-18)
(28.1418 6.34213 -3.89455e-18)
(28.4126 6.22528 3.93633e-19)
(28.6769 6.07556 0)
(28.9291 5.8917 -8.81998e-19)
(29.1632 5.67373 -1.17313e-18)
(29.3729 5.42315 -1.22821e-17)
(29.5524 5.14295 2.30327e-17)
(29.6966 4.83724 -1.0927e-17)
(29.8013 4.51116 -1.52137e-18)
(29.863 4.17059 -1.0987e-17)
(29.88 3.83386 1.02751e-17)
(29.8566 3.51614 7.18702e-19)
(29.799 3.2191 0)
(29.7134 2.9452 0)
(29.6051 2.69575 -3.19611e-19)
(29.4791 2.47111 2.70999e-19)
(29.3397 2.27099 0)
(29.1906 2.09461 0)
(29.035 1.94091 -1.16196e-19)
(28.8756 1.80863 0)
(28.7147 1.6964 -1.65372e-18)
(28.5542 1.60282 1.69775e-18)
(28.3955 1.52619 2.37432e-20)
(28.2399 1.46512 2.09481e-20)
(28.0887 1.41836 6.50988e-19)
(27.9431 1.38464 -6.1104e-19)
(27.803 1.36218 0)
(27.669 1.34984 1.53737e-20)
(27.542 1.34686 0)
(27.4225 1.34999 4.98927e-20)
(25.3546 5.94564 -5.59709e-21)
(25.6059 5.98697 -1.37031e-19)
(25.8407 6.0213 -1.36977e-18)
(26.064 6.05019 4.05038e-18)
(26.2804 6.07198 -7.54323e-19)
(26.4937 6.08614 4.63072e-18)
(26.7068 6.09177 -5.94613e-18)
(26.9214 6.08709 8.07789e-18)
(27.1386 6.0699 -1.29413e-18)
(27.3585 6.03768 -7.91367e-18)
(27.58 5.98789 -1.14367e-17)
(27.8019 5.91806 1.3128e-17)
(28.0224 5.82582 1.80034e-18)
(28.2385 5.70923 1.64135e-18)
(28.4464 5.56692 1.58567e-17)
(28.6421 5.39836 1.92331e-18)
(28.821 5.20395 -1.63279e-17)
(28.9786 4.98509 -1.19057e-18)
(29.1107 4.74415 -8.94315e-18)
(29.2134 4.48443 1.78655e-17)
(29.2832 4.20989 -8.89899e-18)
(29.3176 3.93476 6.00635e-19)
(29.3182 3.67144 0)
(29.2899 3.4219 0)
(29.2368 3.18877 4.84791e-19)
(29.1633 2.97372 3.91318e-18)
(29.0733 2.77761 -3.64543e-18)
(28.9703 2.60064 -4.01713e-18)
(28.8575 2.4426 6.98086e-18)
(28.7377 2.30289 -3.2893e-18)
(28.6132 2.18071 -1.87498e-19)
(28.486 2.07509 2.87494e-18)
(28.3581 1.98497 -4.26144e-18)
(28.2305 1.90902 2.68921e-18)
(28.1045 1.84614 -9.76352e-20)
(27.9812 1.79532 -2.28078e-18)
(27.8618 1.7556 1.61459e-18)
(27.7462 1.72541 -5.4147e-19)
(27.635 1.7039 2.07025e-19)
(27.5289 1.69034 -2.07144e-19)
(27.4284 1.68274 0)
(25.4443 5.65277 4.97223e-21)
(25.6659 5.68121 -6.90535e-19)
(25.8724 5.70373 6.96005e-19)
(26.0677 5.72157 3.64029e-18)
(26.2556 5.73325 -3.10628e-18)
(26.4393 5.73861 3.84454e-18)
(26.6214 5.7371 -4.80089e-18)
(26.8032 5.72748 0)
(26.9858 5.70815 1.63248e-18)
(27.1692 5.67733 6.38896e-18)
(27.353 5.63318 -1.73863e-17)
(27.5364 5.57391 1.13923e-17)
(27.7182 5.49779 -9.57352e-18)
(27.8963 5.40329 -2.28487e-18)
(28.0684 5.28927 9.25996e-19)
(28.2314 5.15508 2.67456e-17)
(28.3822 5.00069 -1.14064e-17)
(28.5175 4.82675 0)
(28.6338 4.6346 -1.64965e-18)
(28.7281 4.42631 8.40084e-19)
(28.7974 4.20456 0)
(28.8386 3.98028 0)
(28.8526 3.76335 0)
(28.8425 3.5556 -8.18053e-19)
(28.8116 3.35945 -4.57364e-19)
(28.763 3.1766 -3.88821e-19)
(28.6997 3.00806 3.76464e-19)
(28.6246 2.8543 -2.60174e-18)
(28.5402 2.71539 2.99906e-18)
(28.4489 2.59107 3.34016e-19)
(28.3527 2.48085 -1.42915e-19)
(28.2533 2.38408 -2.32554e-18)
(28.1523 2.29999 4.81267e-18)
(28.0507 2.22756 -2.40865e-18)
(27.9496 2.16593 0)
(27.8501 2.11435 -9.81186e-19)
(27.753 2.07208 1.43831e-18)
(27.6584 2.0378 -4.30352e-19)
(27.5669 2.01088 2.02683e-19)
(27.479 1.99064 -2.14001e-19)
(27.3951 1.97604 0)
(25.5126 5.40836 1.33323e-19)
(25.7096 5.42727 -6.88983e-19)
(25.8926 5.4412 5.84019e-19)
(26.0648 5.45103 -2.19283e-18)
(26.2296 5.45543 0)
(26.3896 5.45447 1.87727e-18)
(26.547 5.44787 0)
(26.7031 5.4347 -2.90268e-18)
(26.8587 5.41378 9.7196e-18)
(27.014 5.38382 -2.81063e-18)
(27.1686 5.34347 5.66805e-18)
(27.3221 5.29143 -9.45027e-18)
(27.4737 5.22642 -1.12963e-18)
(27.622 5.1473 -9.26628e-18)
(27.7652 5.05319 1.04137e-17)
(27.9013 4.9435 -1.90047e-19)
(28.028 4.81809 -1.44028e-18)
(28.1428 4.67726 -1.28664e-18)
(28.2431 4.52181 1.53885e-18)
(28.3267 4.35307 -7.84401e-19)
(28.3909 4.17283 0)
(28.4332 3.98952 0)
(28.4535 3.81093 0)
(28.4543 3.6386 1.44388e-18)
(28.4378 3.47458 -6.20775e-18)
(28.4064 3.32039 5.88486e-18)
(28.3624 3.17702 4.86817e-18)
(28.3081 3.04503 -5.19889e-18)
(28.2454 2.92463 0)
(28.1763 2.81574 2.00909e-18)
(28.1025 2.71808 -4.23543e-18)
(28.0253 2.63122 1.81146e-18)
(27.9461 2.55464 -2.01856e-18)
(27.8658 2.48753 2.00951e-18)
(27.7854 2.42926 -2.24201e-19)
(27.7056 2.37928 8.62484e-19)
(27.6272 2.33702 -9.59994e-19)
(27.5504 2.3014 0)
(27.4756 2.27196 0)
(27.4033 2.2481 8.62848e-20)
(27.3339 2.22944 -8.17585e-20)
(25.5655 5.20136 -1.93141e-20)
(25.7416 5.21314 6.48309e-19)
(25.9048 5.22073 1.62506e-18)
(26.0578 5.22467 -2.65567e-18)
(26.2033 5.22377 2.09823e-18)
(26.3438 5.21828 0)
(26.4812 5.20806 0)
(26.6166 5.19242 -2.31209e-19)
(26.7506 5.17048 7.47587e-18)
(26.8835 5.14126 -1.89602e-17)
(27.0151 5.10379 5.62497e-18)
(27.145 5.0571 5.00062e-18)
(27.2727 5.00026 4.69143e-19)
(27.3973 4.93243 -1.62116e-17)
(27.5173 4.85295 -1.46743e-18)
(27.6314 4.76137 -1.49313e-18)
(27.7379 4.65753 1.70363e-17)
(27.8348 4.5416 1.49966e-18)
(27.9205 4.41408 -1.00421e-17)
(27.993 4.27588 1.0908e-18)
(28.0505 4.12821 -1.05623e-17)
(28.0905 3.97761 9.44034e-18)
(28.1131 3.83023 5.82226e-18)
(28.1198 3.68726 -5.32304e-18)
(28.1124 3.5504 6.18214e-19)
(28.0926 3.42091 4.45693e-18)
(28.0623 3.29967 -4.43633e-18)
(28.0231 3.18723 0)
(27.9767 3.08383 4.6717e-18)
(27.9246 2.9895 1.95589e-18)
(27.8681 2.90409 -1.94757e-18)
(27.8083 2.8273 2.42494e-19)
(27.7465 2.75878 -2.10292e-19)
(27.6832 2.69792 1.65034e-18)
(27.6194 2.64424 -1.6254e-18)
(27.5557 2.59733 9.35488e-19)
(27.4927 2.55678 -6.52654e-19)
(27.4307 2.52171 1.68122e-19)
(27.3699 2.49181 1.63386e-19)
(27.3108 2.4665 -3.26464e-19)
(27.2537 2.4459 3.70299e-21)
(25.6068 5.02393 1.74549e-19)
(25.765 5.03035 -3.25859e-19)
(25.9112 5.03323 -5.4206e-19)
(26.0478 5.03284 0)
(26.1771 5.02809 -1.8517e-18)
(26.3014 5.01935 -5.17021e-18)
(26.4222 5.00659 8.65329e-18)
(26.5405 4.9893 -1.33601e-17)
(26.6569 4.96679 1.69984e-17)
(26.7717 4.93835 -5.77899e-18)
(26.8847 4.90324 -8.44423e-18)
(26.9957 4.86075 6.05787e-19)
(27.1042 4.8102 9.33737e-18)
(27.2096 4.75098 7.65757e-18)
(27.3109 4.68261 -6.10125e-18)
(27.407 4.60477 1.55712e-18)
(27.4967 4.51734 0)
(27.5786 4.42045 -7.27159e-18)
(27.6514 4.31443 7.38704e-18)
(27.7136 4.19994 -1.01417e-18)
(27.7639 4.07784 8.68375e-18)
(27.8003 3.95327 -8.54912e-18)
(27.8227 3.83105 -1.03268e-18)
(27.8323 3.71213 0)
(27.8304 3.59781 0)
(27.8183 3.48915 3.22822e-18)
(27.7975 3.38687 -3.22211e-18)
(27.7692 3.29146 3.4826e-18)
(27.7348 3.20314 3.01182e-18)
(27.6955 3.122 -3.26988e-18)
(27.6522 3.04794 1.67722e-18)
(27.606 2.98078 3.09312e-18)
(27.5577 2.92025 -1.31837e-18)
(27.508 2.8659 0)
(27.4574 2.81736 1.56886e-20)
(27.4067 2.77435 -1.72294e-19)
(27.3562 2.73654 1.51761e-19)
(27.3062 2.70324 -1.57157e-19)
(27.2569 2.67422 1.4994e-19)
(27.2088 2.64898 6.23645e-20)
(27.162 2.62792 1.96496e-19)
(25.6395 4.87036 0)
(25.7821 4.87273 2.38017e-19)
(25.9136 4.87211 0)
(26.036 4.86851 0)
(26.1515 4.86096 5.22258e-18)
(26.2619 4.84991 -3.62732e-18)
(26.3687 4.83542 2.47646e-18)
(26.4728 4.81708 -4.02833e-18)
(26.5746 4.79438 2.94176e-18)
(26.6745 4.76678 0)
(26.7722 4.73373 0)
(26.8678 4.6947 0)
(26.9607 4.64921 1.05069e-17)
(27.0505 4.59681 -1.92949e-17)
(27.1366 4.53717 9.9752e-18)
(27.218 4.47007 -1.44444e-18)
(27.2938 4.39546 0)
(27.3631 4.31342 0)
(27.4248 4.22424 8.04612e-19)
(27.4779 4.1284 0)
(27.5213 4.02654 -5.49252e-18)
(27.5536 3.92273 6.31901e-18)
(27.5745 3.82081 -7.3655e-19)
(27.5851 3.72147 -7.33075e-19)
(27.5864 3.62575 6.11863e-18)
(27.5794 3.53446 -4.97375e-18)
(27.5651 3.44821 -4.57813e-20)
(27.5447 3.36737 3.43919e-19)
(27.5191 3.29217 3.35621e-19)
(27.4892 3.22267 3.26699e-19)
(27.456 3.15883 3.17331e-19)
(27.4202 3.1005 -1.27442e-18)
(27.3824 3.04752 1.26872e-18)
(27.3433 2.99952 0)
(27.3032 2.95624 -1.27011e-18)
(27.2628 2.91744 1.40811e-18)
(27.2223 2.88291 3.89343e-19)
(27.182 2.85206 -5.28397e-19)
(27.1421 2.82476 -1.20179e-19)
(27.1031 2.80056 -1.24627e-19)
(27.0647 2.78001 -1.19475e-19)
(25.6655 4.73632 0)
(25.7944 4.73565 -2.15375e-19)
(25.913 4.73243 6.97303e-19)
(26.0231 4.72646 -2.33421e-18)
(26.1266 4.7169 2.40155e-18)
(26.2251 4.70424 0)
(26.32 4.68861 1.85711e-18)
(26.412 4.66968 2.29761e-19)
(26.5016 4.64707 -2.70623e-18)
(26.589 4.62037 0)
(26.6741 4.58918 -5.05082e-18)
(26.7568 4.55312 5.00604e-18)
(26.8369 4.51182 -1.76133e-18)
(26.9139 4.46497 0)
(26.9874 4.41237 0)
(27.0566 4.35387 0)
(27.121 4.28945 0)
(27.1797 4.21922 -1.12471e-18)
(27.232 4.1434 0)
(27.2772 4.06239 0)
(27.3145 3.97666 -1.86813e-18)
(27.3426 3.88949 6.82891e-19)
(27.3616 3.80395 -5.21228e-19)
(27.3722 3.72054 1.28125e-18)
(27.3752 3.64006 0)
(27.3713 3.56315 4.27886e-18)
(27.3616 3.49028 -5.82942e-18)
(27.3467 3.42176 -2.69501e-18)
(27.3275 3.35775 1.498e-18)