/*--------------------------------*- C++ -*----------------------------------*\
| =========                 |                                                 |
| \\      /  F ield         | OpenFOAM: The Open Source CFD Toolbox           |
|  \\    /   O peration     | Version:  2312                                  |
|   \\  /    A nd           | Website:  www.openfoam.com                      |
|    \\/     M anipulation  |                                                 |
\*---------------------------------------------------------------------------*/
FoamFile
{
    version     2.0;
    format      ascii;
    arch        "LSB;label=32;scalar=64";
    class       volScalarField;
    location    "150";
    object      div(phi);
}
// * * * * * * * * * * * * * * * * * * * * * * * * * * * * * * * * * * * * * //

dimensions      [0 0 -1 0 0 0 0];

internalField   nonuniform List<scalar> 
11040
(
-0.000308789
0.00393171
0.00785991
0.00844529
-0.00863994
-0.0205734
-0.0382857
0.000344077
0.0707326
0.035748
-0.0350447
-0.0172789
0.0040886
0.0253751
-0.0152153
0.00763012
0.000595959
0.00482264
0.00931912
0.00310871
0.0118174
-0.00634404
0.0122679
0.0100799
0.0040163
0.00103464
0.0134511
-0.000503043
0.0179605
-0.00399614
0.021957
-0.00600919
0.0209046
-0.00571117
0.0142653
-0.00804119
0.00755574
-0.0247598
-0.00998462
0.00443165
0.0436417
0.00110023
0.00115825
-8.76963e-05
-0.00351621
-0.00555428
-0.00522061
-0.00572914
-0.00116838
0.00520195
-0.00213477
-0.0108008
-0.00505862
-0.000933357
-0.00747699
-0.0115536
-0.00693032
-0.00316079
-0.00651738
-0.00348781
-0.0113015
-0.00893375
-0.0167228
-0.0105421
-0.00855423
-0.0130672
-0.00970514
-0.00631373
-0.00868899
-0.00312187
-0.00906729
0.000898468
-0.00721554
0.00728971
-0.00160317
0.0149198
0.00711321
0.0220421
0.0131937
0.0313211
0.0420497
0.0782387
-0.000999824
0.00150832
0.00171799
0.000490845
-0.00253416
-0.0034014
-0.00302868
0.000560065
0.00808652
0.00929655
0.000587042
-0.00238233
0.00245473
0.00881157
-0.00533719
0.000655012
-0.00126012
0.00220026
0.00312623
0.00313722
0.00480104
-6.26324e-05
0.0067896
0.00794051
0.00352966
0.00229632
0.00730589
0.00236865
0.00837443
0.00115764
0.00804428
-0.00042306
0.00470099
-0.00174273
5.3741e-05
-0.00374094
-0.00223145
-0.0092219
-0.00931928
-0.00624114
-0.00363005
0.000847558
0.00172191
0.0014023
-0.000601855
-0.00232524
-0.0026776
-0.00167062
0.00106363
0.00372422
0.00229485
0.000402537
0.00118732
0.00212014
-0.000229567
-0.00316964
-0.00261502
-0.0025666
-0.00292159
-0.00242485
-0.00415185
-0.004161
-0.0063114
-0.0050862
-0.0132471
-0.00598303
-0.00542029
-0.00432433
-0.00455353
-0.00315127
-0.00430245
-0.00197028
-0.0028189
0.00063194
0.000108731
0.00393267
0.00471691
0.00822787
0.00852534
0.0137568
0.0182971
0.0266535
0.000726271
0.00104264
0.00061616
-0.000615883
-0.00145657
-0.00192989
-0.00145622
0.000524241
0.00295765
0.00377745
0.0015874
9.90598e-05
0.0017111
0.00297152
-0.0018468
-0.00107027
-0.00141244
0.000336993
0.000351595
0.00145352
0.00145218
0.000310085
0.00262172
0.00475421
0.0010005
0.00128059
0.00267308
0.00176293
0.0030697
0.00132974
0.00214872
0.00066916
0.000856442
2.16721e-05
-0.000889727
-0.000515618
-0.000846676
-0.00199373
-0.00253003
-0.00120256
-0.0012846
-0.000170486
0.000593705
7.47566e-05
-0.000277493
-0.00149409
-0.00151274
-0.000493248
0.00095203
0.00230035
0.00141235
0.000239378
0.000578127
0.00123703
0.000373108
-0.000729215
-0.000866257
-0.000949582
-0.000924925
-0.0010259
-0.00140981
-0.00180772
-0.00219357
-0.00193217
-0.00302712
-0.00192769
-0.002454
-0.00197456
-0.00178772
-0.00147742
-0.00164471
-0.00102927
-0.000772503
-7.93622e-05
7.32238e-05
0.000908933
0.00164461
0.0021453
0.00245859
0.00334477
0.00423574
0.0044841
0.000613338
0.000114747
0.000231639
-0.000801139
-0.00108615
-0.000950177
-0.000610853
0.000621097
0.00089706
0.000934656
0.000463227
7.01835e-05
0.00052435
0.000592449
-0.00047355
-0.000741689
-0.000814444
-0.000335233
-0.000317606
0.000211744
9.56542e-05
-3.14467e-05
0.000776473
0.000866647
-0.000219129
0.000238223
0.000546152
0.000562501
0.000611656
0.000320671
0.000413917
0.000396553
0.00020176
0.000188332
3.50999e-05
0.000434092
0.000411153
0.000335168
0.000252956
0.000498088
0.000440591
-0.000395104
0.000129441
-6.48557e-06
-0.00066979
-0.000819404
-0.00123966
5.08052e-05
0.000343622
0.00124327
0.000895987
0.000424595
0.000712349
0.00040034
-3.05063e-05
-0.000415212
-0.000512456
-0.000411591
-0.000278861
-0.00025285
-0.000307697
-0.000609305
-0.000443956
-0.000196418
-0.000413448
8.58527e-05
-0.00041794
-0.000206554
-0.000159669
-9.45155e-05
-0.000151535
6.58501e-05
4.42506e-05
8.09573e-05
-3.50055e-05
0.000150159
0.000198224
0.00010372
-0.000120744
-0.000144027
-0.000261798
-0.000613895
-0.000208047
0.00046139
-0.000395649
-0.000158889
-0.00112232
6.85738e-05
-0.000220605
0.0010789
0.000922608
0.000865681
0.000997039
0.000210404
0.000301428
-0.00010272
-0.000293657
-0.000451082
-0.000396711
-0.000344249
-0.00026446
-0.000225542
-0.00019834
-0.000156459
0.000100787
0.000222855
-0.00027833
-5.00561e-05
-3.55595e-05
9.12727e-05
-5.35626e-06
9.60333e-05
0.000109292
0.000233142
0.000130513
0.00023112
0.000262292
0.000380361
0.000310561
0.000271624
0.000160926
5.29479e-05
-9.77538e-05
0.000377361
-9.89579e-05
0.00030641
-0.000550251
0.000136458
-0.000424884
0.000559717
0.000523669
0.000703543
0.000906806
0.000167153
0.00050997
0.000112016
3.00977e-05
-0.000151964
-0.000206728
-0.000167084
-9.90152e-05
-0.000113799
-7.1973e-05
-0.000111069
6.34465e-05
0.000240066
0.000134971
0.000273397
9.65428e-05
0.000507424
3.39882e-05
0.000487923
-6.4181e-05
0.000512258
-0.000150311
0.000337449
-0.000191653
0.000276161
-0.000125796
7.96264e-05
-0.000230661
-0.00018134
-0.000281177
-0.000413057
7.08351e-06
0.000253319
3.84612e-05
0.000105644
-0.000152131
7.97499e-05
0.000106022
0.000154435
0.000387161
4.42055e-05
0.000381167
0.000147742
0.000216276
0.000157159
6.88701e-05
1.12404e-05
1.81313e-05
-0.000155599
-0.000126833
-0.000192418
-0.00014365
-1.17842e-05
3.15962e-05
5.3908e-05
0.000106799
0.000363317
-3.51322e-05
0.00062372
-0.000161675
0.000660053
-0.000357703
0.000490584
-0.0005276
0.000266652
-0.000605259
-5.0401e-05
-0.00067534
-0.000470078
-0.000653907
-0.000782819
-0.000699414
7.8727e-05
0.000166975
9.59998e-05
8.42037e-05
-3.40242e-05
-4.51688e-05
-0.00012951
-0.000101765
-0.000108157
-8.03483e-06
2.63508e-06
0.000125759
0.000174997
0.000180539
5.20171e-05
9.02094e-05
-0.000145591
-8.50996e-05
-0.000165357
-0.000133269
-3.51885e-05
2.39318e-06
6.18097e-05
0.000152695
-3.59651e-05
5.8772e-05
0.000369574
-4.96359e-05
0.000411311
-0.00020022
0.00034852
-0.00036511
0.000181105
-0.000486826
-2.59638e-05
-0.000545984
-0.000361225
-0.000544976
-0.000653622
-0.000485794
-0.000914587
3.54577e-05
0.000115113
6.52201e-05
4.54949e-05
-2.37482e-05
-5.22527e-05
-0.000155857
-0.000133156
-0.000211302
-0.000172592
-8.65597e-05
-5.60109e-05
6.48146e-05
-3.422e-05
5.70735e-05
-8.92587e-05
-3.1912e-05
-6.50929e-05
-7.06736e-05
6.7287e-05
5.35938e-05
0.000157191
0.000264318
-0.000151532
0.000130622
-0.000232779
-9.21516e-05
1.14802e-05
-5.03898e-05
4.27681e-05
-7.35584e-05
-4.69369e-06
-9.91948e-05
-2.53044e-05
-0.000103337
-9.62313e-05
-0.000110479
-0.00016671
-8.1534e-05
-0.000232102
-9.91886e-05
-7.74897e-06
7.64696e-05
3.97532e-05
2.86201e-05
-7.75007e-06
-3.84085e-05
-9.19603e-05
-0.000105817
-0.000170124
-0.00015531
-0.000187251
-0.000124165
-0.000110912
-7.71291e-05
-5.48207e-05
-6.19339e-05
-1.09258e-05
-5.77201e-05
8.43512e-05
4.74809e-05
0.000113949
0.000191534
-8.02543e-05
0.000108524
-0.000392911
-0.000208571
-0.000121903
-0.00025899
9.79146e-06
-0.000185295
6.93917e-05
-0.000114209
0.000121785
-2.73478e-05
0.000170987
4.85492e-05
0.000217989
9.46166e-05
0.000258941
0.000100655
0.000243829
-1.57631e-05
6.13622e-05
1.88904e-05
2.47644e-05
-1.76159e-06
-1.65395e-05
-4.2091e-05
-5.9684e-05
-9.79653e-05
-9.16748e-05
-0.000143449
-9.08364e-05
-0.000130877
-7.56592e-05
-8.55659e-05
-4.79749e-05
-5.41516e-05
-2.95236e-06
-3.86716e-06
-7.67842e-06
2.48285e-05
-5.30656e-05
0.000122635
-0.000287161
-0.000228268
-0.000312375
-0.000457891
0.000151413
-0.000465804
0.000289533
-0.000433669
0.000359933
-0.000344214
0.000355945
-0.000191927
0.000296121
3.8993e-06
0.000167595
0.000205343
2.98928e-05
0.000364017
-2.39503e-05
4.58392e-05
8.94581e-06
2.4095e-05
-3.95987e-06
2.31735e-06
-2.10629e-05
-2.01743e-05
-4.94004e-05
-3.31896e-05
-7.92245e-05
-3.10048e-05
-8.8935e-05
-2.04669e-05
-7.03457e-05
-3.07043e-05
-5.22338e-05
-4.309e-05
-6.13094e-05
-5.79098e-05
-7.3326e-05
9.11626e-05
-0.000232354
1.64591e-05
-0.000276538
-0.000220898
-0.000296758
-0.000243183
3.67048e-05
-0.000203204
0.000116857
-0.000153466
0.000147046
-7.9283e-05
0.00016691
1.53839e-05
0.000137271
0.000111734
8.47887e-05
0.000198878
3.00549e-05
-2.23089e-05
3.89204e-05
-1.03224e-07
2.58436e-05
-7.77511e-06
1.56475e-05
-1.46903e-05
5.01804e-06
-2.61675e-05
-1.10448e-07
-3.94546e-05
3.77977e-06
-4.38181e-05
7.99371e-06
-4.20968e-05
1.03666e-05
-3.97128e-05
-2.17242e-05
-4.49625e-05
-6.25466e-05
-4.14725e-05
-0.000139445
0.000119631
-0.000215232
0.000118248
-0.000356243
4.71518e-05
-0.000166668
2.97449e-05
-0.000128738
7.45952e-05
-0.000101629
9.57457e-05
-5.94947e-05
9.94679e-05
-2.39542e-06
8.59457e-05
5.14493e-05
5.54931e-05
0.000103543
2.47538e-05
-9.1256e-06
2.62727e-05
-1.00837e-06
1.95137e-05
-7.54422e-06
1.51116e-05
-1.16718e-05
9.64009e-06
-1.69425e-05
6.3945e-06
-2.17206e-05
9.32765e-06
-2.27685e-05
1.65008e-05
-1.23557e-05
7.75284e-06
-1.09416e-05
-7.45003e-06
-2.10589e-05
-1.77646e-05
-2.12852e-05
8.84807e-05
-6.63859e-05
0.000109868
-5.57836e-05
-4.93566e-05
-5.35899e-06
-0.000158215
7.44292e-05
-0.000164771
8.88574e-05
-0.000155872
8.02643e-05
-0.000135843
5.39741e-05
-0.00010435
1.57748e-05
-6.44485e-05
-2.59095e-05
-2.17278e-05
-6.13815e-05
-2.70261e-06
2.10079e-05
-3.05345e-06
1.52066e-05
-6.78678e-06
1.32485e-05
-8.85152e-06
1.0886e-05
-1.05162e-05
9.37693e-06
-1.05185e-05
1.04897e-05
-6.40507e-06
1.17799e-05
-2.58603e-06
1.67845e-05
4.22464e-06
1.28967e-05
1.08213e-05
5.90407e-06
1.40551e-05
-4.38629e-05
0.000143811
-5.69601e-05
8.64614e-05
-1.31979e-05
-1.47601e-05
8.39513e-06
-5.7455e-05
3.32633e-05
-6.01453e-05
3.59954e-05
-5.49652e-05
3.16449e-05
-4.32666e-05
2.17099e-05
-2.7597e-05
7.07427e-06
-1.11642e-05
-8.16896e-06
6.47236e-06
2.12737e-05
1.62449e-07
1.32539e-05
-1.73058e-06
4.46359e-06
2.22829e-07
2.84801e-07
1.33554e-06
-1.82431e-06
2.39622e-06
-1.48143e-06
4.65487e-06
7.13072e-07
9.43704e-06
6.63655e-06
1.11033e-05
1.41514e-05
1.16906e-05
1.66196e-05
1.00813e-05
6.69254e-06
7.54626e-05
-2.56219e-05
0.000161088
3.40324e-07
0.000135135
-9.00222e-05
0.000174955
-5.7633e-05
4.35846e-05
-5.71424e-05
3.38291e-05
-5.87909e-05
2.01327e-05
-5.60028e-05
2.32524e-06
-5.042e-05
-1.72716e-05
-4.22369e-05
-3.69178e-05
-3.3791e-05
-1.56033e-05
3.33502e-05
-1.52999e-05
2.58719e-05
-2.16267e-05
2.28385e-05
-2.21966e-05
2.04764e-05
-1.94859e-05
1.78582e-05
-1.40189e-05
1.53202e-05
-6.25871e-06
1.21844e-05
2.08187e-06
8.72688e-06
1.05138e-05
2.51181e-06
1.96784e-05
-8.35871e-06
2.22487e-05
-4.30217e-05
7.11336e-05
-2.14558e-05
0.000100641
1.81338e-05
9.12522e-05
-6.74744e-05
0.000100539
-2.27679e-05
1.9403e-05
-1.88839e-05
1.739e-05
-1.45177e-05
1.36102e-05
-8.05048e-06
1.12092e-05
-2.02066e-06
4.95917e-06
3.00261e-06
-1.69419e-06
1.73295e-05
8.06224e-06
1.3093e-05
-2.06139e-06
6.07976e-06
-5.89162e-06
3.71818e-06
-7.45316e-06
2.66134e-06
-6.54123e-06
2.12737e-06
-5.0397e-06
1.94866e-06
-1.40217e-06
1.02297e-06
5.17682e-07
-7.20597e-07
2.17451e-06
-5.06008e-06
5.04322e-06
-2.21751e-05
2.97427e-05
-2.0505e-05
6.09251e-05
6.95303e-06
3.20462e-05
5.79643e-06
-6.32337e-07
1.61548e-05
-1.30687e-05
9.67331e-06
-1.25251e-05
8.03652e-06
-1.19216e-05
5.18265e-06
-1.06424e-05
-3.72004e-06
-8.15302e-06
-1.01129e-05
-4.69377e-06
-1.46596e-05
2.57343e-06
2.04619e-05
2.31477e-06
9.23892e-06
-2.34368e-06
2.76928e-06
-3.07939e-06
-2.61202e-07
-2.28834e-06
-1.28823e-06
-1.68415e-06
-1.06691e-06
-1.6558e-06
-3.59125e-08
-1.74542e-06
6.2645e-07
-4.94738e-06
-2.65104e-07
-5.37653e-06
-3.13583e-06
1.58049e-05
-3.67721e-06
4.04998e-05
-6.94358e-06
3.76534e-05
-7.82169e-06
3.67551e-05
-3.08038e-05
4.41632e-05
-1.35959e-05
6.53556e-06
-1.16554e-05
2.23637e-07
-1.08532e-05
-5.57708e-06
-9.11083e-06
-9.98343e-06
-7.1113e-06
-1.53861e-05
-5.56366e-06
-2.10802e-05
9.27689e-06
3.02607e-06
1.92599e-05
-5.38607e-06
1.2616e-05
-1.02645e-05
1.00133e-05
-1.0713e-05
8.28194e-06
-8.85341e-06
6.3557e-06
-5.87084e-06
3.77703e-06
-1.5744e-06
8.79114e-08
1.31455e-06
-4.2139e-06
2.7729e-06
-7.173e-06
5.73598e-06
-7.8488e-06
1.32949e-05
-1.35204e-05
1.9501e-05
-9.45338e-06
2.28417e-05
2.38584e-06
2.20252e-05
-1.7956e-05
2.20031e-05
-6.40985e-06
-1.70013e-06
-5.52053e-06
-4.42834e-06
-4.20955e-06
-7.9461e-06
-2.82581e-06
-1.03772e-05
-6.42349e-07
-1.32182e-05
1.87504e-06
7.04099e-06
1.50217e-05
6.93256e-06
7.93363e-06
-1.83278e-07
3.06486e-06
-2.84984e-06
1.5114e-06
-3.09262e-06
8.67434e-07
-2.88613e-06
2.55538e-07
-1.74664e-06
-6.93492e-07
-7.39591e-07
-1.69697e-06
7.98116e-08
-2.44947e-06
1.53627e-06
-2.85141e-06
2.99577e-06
-7.13842e-06
1.19407e-05
-6.92758e-06
1.70978e-05
-1.45538e-06
5.60609e-06
-3.85399e-06
-3.85278e-06
-6.91562e-06
-5.38051e-06
-6.55594e-06
-3.07207e-06
-9.36298e-06
3.99361e-08
-1.3095e-05
2.85207e-06
-1.65214e-05
5.58145e-06
-1.78541e-05
5.92924e-06
5.15039e-06
7.38811e-06
1.25498e-05
1.80445e-06
5.71225e-06
-1.66691e-06
2.10069e-06
-1.85417e-06
5.79406e-07
-1.39908e-06
-1.84521e-08
-1.1612e-06
-1.20029e-07
-1.1174e-06
3.27885e-07
-1.7524e-06
1.10112e-06
-2.2216e-06
1.65057e-06
-2.2403e-06
9.37047e-07
6.64596e-06
4.67636e-07
1.51619e-05
-1.70164e-06
1.14346e-05
-4.09376e-06
2.98627e-06
-3.87512e-06
1.37536e-06
-7.1105e-06
-6.32403e-07
-5.46554e-06
1.70517e-06
-8.26836e-06
3.53443e-06
-1.1342e-05
5.6481e-06
-1.41003e-05
7.05631e-06
-1.73024e-05
1.55002e-06
1.20503e-05
3.44754e-06
1.05012e-05
-2.51429e-06
6.40019e-06
-5.10818e-06
4.99232e-06
-5.09237e-06
4.1032e-06
-4.0276e-06
2.99168e-06
-2.45325e-06
1.56496e-06
-7.52124e-07
8.0933e-08
9.63051e-07
-1.27209e-06
2.21421e-06
-1.91737e-06
3.17029e-06
-1.95361e-06
5.98964e-06
-3.20053e-06
7.29356e-06
-3.27412e-06
6.13986e-06
1.44103e-06
3.18955e-06
4.35513e-07
-3.98491e-07
2.35894e-06
-5.32847e-06
4.13124e-06
-8.14943e-06
6.32429e-06
-1.13026e-05
8.17903e-06
-1.32273e-05
9.99803e-06
-1.6859e-05
4.27956e-06
5.50135e-06
8.62542e-06
3.91219e-06
4.14974e-06
-2.19479e-07
1.45774e-06
-1.43889e-06
7.26269e-07
-1.40599e-06
4.76222e-07
-1.15237e-06
2.34017e-07
-5.77936e-07
-1.16257e-07
-1.37825e-07
-5.37553e-07
3.65586e-07
-6.2622e-07
9.30892e-07
-5.87819e-07
1.71538e-06
-1.30132e-06
4.62149e-06
-1.25156e-06
5.49317e-06
1.10453e-06
4.58553e-06
-1.44968e-06
9.66528e-06
-4.31809e-06
8.17647e-06
-6.68999e-06
9.80005e-06
-1.00194e-05
1.21724e-05
-1.31895e-05
1.53961e-05
-1.64003e-05
1.70709e-05
-1.731e-05
3.4256e-06
5.62322e-06
4.70045e-06
6.99356e-06
8.36562e-07
3.16946e-06
-1.22209e-06
1.21849e-06
-1.12093e-06
4.47345e-07
-6.93143e-07
1.37644e-07
-4.15334e-07
1.79055e-07
-3.56747e-07
3.02448e-07
-5.77404e-07
6.35763e-07
-8.85558e-07
1.09872e-06
-1.03545e-06
9.50996e-07
2.22629e-06
1.05192e-06
5.73558e-06
2.39579e-06
3.32756e-06
4.23638e-06
5.00878e-06
-3.997e-07
1.0431e-05
-2.35394e-06
8.05352e-06
-6.50147e-06
8.91614e-06
-9.43565e-06
1.08528e-05
-1.27711e-05
1.20725e-05
-1.62654e-05
1.47941e-05
3.40714e-07
2.87047e-06
6.60796e-06
2.24966e-06
5.92416e-06
-1.33195e-06
3.55352e-06
-2.76092e-06
2.79731e-06
-2.73251e-06
2.37702e-06
-2.23512e-06
1.93672e-06
-1.45864e-06
1.37823e-06
-6.35089e-07
8.71544e-07
3.32452e-08
7.24963e-07
8.03688e-07
5.39052e-07
1.58385e-06
1.2929e-07
2.65999e-06
1.17635e-06
2.02619e-06
2.51177e-06
2.1239e-07
5.38689e-06
-4.16297e-06
1.2802e-05
-5.38705e-06
9.73934e-06
-5.46311e-06
9.9223e-06
-8.24306e-06
1.15945e-05
-1.13848e-05
1.22471e-05
-1.53226e-05
1.45634e-05
2.91785e-06
2.10622e-06
3.76154e-06
4.92458e-06
2.51407e-06
2.51312e-06
1.70241e-08
9.92567e-07
-5.38958e-07
6.07512e-07
-6.24973e-07
5.80026e-07
-4.17031e-07
5.65568e-07
-1.16377e-07
6.02372e-07
1.56824e-07
8.50405e-07
6.03055e-07
1.03754e-06
1.0966e-06
4.08609e-07
1.80822e-06
3.95805e-07
1.59728e-06
8.77517e-07
-3.96423e-07
-7.34796e-07
3.13847e-06
-5.56672e-06
1.51703e-05
-8.4288e-06
1.31402e-05
-7.61252e-06
1.29268e-05
-1.079e-05
1.43322e-05
-1.42142e-05
1.53375e-05
-1.7145e-05
1.6573e-05
-1.70563e-06
2.33551e-06
3.04211e-06
3.06807e-06
4.18855e-06
6.12039e-07
2.11005e-06
-4.38589e-07
1.04189e-06
-3.2674e-07
6.21171e-07
2.13933e-08
4.86791e-07
3.82703e-07
5.36743e-07
6.41754e-07
8.16314e-07
7.13545e-07
1.09032e-06
7.46539e-07
1.00486e-06
1.64471e-06
5.27698e-07
2.23931e-06
1.04573e-06
8.57978e-07
5.29398e-07
-7.30278e-07
-8.02535e-07
5.19628e-06
-2.77859e-06
1.66191e-05
-4.73198e-06
1.11361e-05
-7.21402e-06
1.12178e-05
-1.02982e-05
1.34251e-05
-1.30631e-05
1.47569e-05
-1.55646e-05
2.3255e-06
5.01069e-07
2.30844e-06
3.85108e-06
1.43868e-06
3.66022e-06
-6.39831e-07
2.43493e-06
-1.35408e-06
2.12433e-06
-1.2673e-06
2.03617e-06
-8.77566e-07
1.97179e-06
-3.75648e-07
1.97189e-06
3.96459e-08
2.20011e-06
5.71124e-07
2.27824e-06
1.15117e-06
5.84398e-07
1.69676e-06
-1.47296e-07
1.62561e-06
3.70377e-07
7.1244e-07
-1.1578e-06
-4.33956e-07
3.65844e-06
-3.73091e-06
1.35273e-05
-6.25993e-06
1.01167e-05
-7.44919e-06
1.02215e-05
-1.07584e-05
1.20443e-05
-1.27961e-05
1.39142e-05
-1.59316e-05
-2.39669e-06
1.74516e-06
1.15921e-06
2.51902e-06
2.81746e-06
1.70892e-06
1.34916e-06
3.92794e-07
7.71077e-07
1.19063e-07
7.92954e-07
1.95972e-07
9.89462e-07
3.54844e-07
1.19501e-06
6.41218e-07
1.61555e-06
9.64714e-07
1.99202e-06
1.31192e-06
7.76961e-07
1.80549e-06
2.92852e-07
2.33523e-06
1.70901e-06
2.01665e-06
1.31445e-06
-3.46845e-07
4.11997e-07
4.06738e-06
-3.73262e-06
1.49962e-05
-6.23261e-06
1.15604e-05
-6.57606e-06
1.13582e-05
-9.95462e-06
1.27164e-05
-1.16659e-05
1.41009e-05
-1.50794e-05
1.89241e-06
-3.62615e-07
1.97198e-06
1.57683e-06
2.50569e-06
1.46333e-06
1.34634e-06
3.07828e-07
7.39612e-07
1.39544e-07
7.5881e-07
2.69154e-07
8.71536e-07
5.01021e-07
1.20876e-06
8.15164e-07
1.45957e-06
1.23962e-06
1.33398e-06
9.08385e-07
1.16307e-06
1.70231e-06
2.07243e-06
4.48168e-06
3.73816e-06
5.60246e-06
3.28905e-06
4.32253e-06
1.72919e-06
8.97508e-06
-2.97623e-06
2.11756e-05
-5.40117e-06
1.62542e-05
-6.52278e-06
1.44541e-05
-9.51913e-06
1.46475e-05
-1.14602e-05
1.40985e-05
-1.30435e-05
-2.31932e-06
1.38921e-06
1.93846e-07
2.09213e-06
1.43688e-06
2.11554e-06
2.54133e-07
1.2273e-06
-2.39192e-07
8.24707e-07
-5.53343e-08
6.93446e-07
4.2764e-07
8.19898e-07
7.5078e-07
1.09846e-06
1.09939e-06
1.00703e-06
1.38804e-06
8.08045e-07
2.01023e-06
8.69521e-07
5.68669e-06
2.57775e-06
1.10668e-05
4.5742e-06
1.33512e-05
5.27627e-06
1.25126e-05
-7.26121e-07
1.20156e-05
-1.09518e-05
2.62247e-05
-1.28004e-05
1.45119e-05
-7.05882e-06
1.16482e-05
-9.58399e-06
9.90527e-06
-1.09327e-05
1.06731e-05
1.49967e-06
-5.33918e-07
1.51483e-06
6.38809e-07
2.02188e-06
7.00181e-07
1.87932e-06
-5.83088e-07
1.4509e-06
-1.0423e-06
1.54909e-06
-9.6005e-07
1.70718e-06
-7.87369e-07
1.94601e-06
-1.74935e-07
1.87897e-06
5.42078e-07
1.48923e-06
6.4244e-07
-3.91095e-07
3.02108e-06
-3.16723e-06
1.15622e-05
-1.16202e-07
1.6628e-05
2.40352e-06
1.46674e-05
-2.60773e-06
9.35532e-06
5.36747e-06
2.68203e-06
1.76669e-05
1.57096e-06
1.60682e-05
-5.74476e-06
1.34224e-05
-8.66004e-06
1.05926e-05
-1.01811e-05
9.76209e-06
-1.84008e-06
1.00221e-06
-7.14598e-08
1.25677e-06
1.15232e-06
1.28213e-06
7.50118e-07
5.78283e-07
4.39127e-08
3.6044e-07
-8.38518e-08
4.33504e-07
-9.15278e-08
8.13786e-07
1.39683e-07
9.32982e-07
5.43312e-07
8.08365e-07
4.39528e-07
6.76682e-07
2.83453e-07
-4.36598e-06
7.32723e-06
-7.21541e-06
1.80715e-05
-1.2831e-06
1.51753e-05
-5.26904e-06
1.93568e-05
-5.61069e-06
2.42108e-05
-1.18697e-05
3.86305e-05
-1.15457e-05
1.70091e-05
-8.72344e-06
1.21649e-05
-1.05516e-05
9.15249e-06
-1.09109e-05
8.19261e-06
1.05435e-06
-4.70129e-07
9.54599e-07
4.0036e-07
9.21804e-07
1.24445e-06
5.97646e-07
6.26916e-07
-3.99518e-08
3.18439e-07
-2.27424e-07
4.22194e-07
-2.02743e-07
3.79965e-07
-2.0318e-07
7.51099e-07
-4.23075e-07
8.59173e-07
-1.63923e-07
1.02612e-06
-8.96999e-07
5.58334e-06
-6.60588e-06
1.34207e-05
-9.00891e-06
8.6234e-06
-1.053e-05
1.17938e-05
-1.33597e-05
1.46553e-05
3.21552e-06
7.89318e-06
1.53686e-05
1.07712e-05
1.8518e-05
-2.35456e-06
1.55901e-05
-5.62381e-06
1.17402e-05
-7.22678e-06
8.90005e-06
-1.37552e-06
5.86633e-07
-1.72611e-07
7.27379e-07
8.37779e-07
6.31807e-07
1.12505e-06
-4.48458e-08
6.06841e-07
-3.78522e-07
2.64894e-07
-3.39542e-07
-9.80735e-08
1.15287e-07
-2.34675e-07
4.03301e-07
-3.78683e-07
6.04768e-07
-7.47186e-07
7.19955e-07
-4.12702e-07
-5.47198e-06
5.77325e-06
-1.11535e-05
6.24426e-06
-1.04216e-05
9.76782e-06
-1.35651e-05
1.97357e-05
-1.40898e-05
1.20395e-05
-2.01469e-05
3.00743e-05
-2.13148e-05
1.35681e-05
-7.64197e-06
1.00535e-05
-8.55203e-06
7.65038e-06
-8.57365e-06
6.15668e-06
5.8298e-07
-4.55621e-07
5.38255e-07
1.43023e-07
4.39908e-07
1.05827e-06
2.09128e-07
1.16992e-06
-7.47887e-07
1.05888e-06
-1.45326e-06
1.3237e-06
-1.87353e-06
1.6231e-06
-2.38068e-06
2.04113e-06
-3.05931e-06
2.58172e-06
-3.16401e-06
3.24065e-06
-2.76144e-06
6.0261e-06
-6.45037e-06
4.97778e-06
-9.54898e-06
2.794e-06
-1.28369e-05
2.23169e-06
-2.25499e-05
-1.40914e-05
-1.64117e-05
-1.35421e-05
4.2412e-06
-2.14539e-05
1.07563e-05
-7.24218e-06
1.06874e-05
-8.99821e-06
8.67473e-06
-1.01985e-05
6.82548e-06
-1.01532e-06
2.88972e-07
-3.11191e-07
4.13748e-07
3.37846e-07
5.83297e-07
6.90425e-07
3.49155e-07
2.86314e-07
-2.34522e-07
1.4598e-07
-5.76752e-07
2.52501e-07
-9.6789e-07
4.59651e-07
-1.51026e-06
7.57713e-07
-1.69055e-06
1.24065e-06
-1.94233e-06
2.50871e-06
-3.81999e-06
3.56281e-06
-4.96752e-06
4.30766e-06
-4.18463e-06
6.43025e-06
-5.20992e-06
3.6506e-06
-7.95561e-06
-1.74773e-06
1.01792e-06
-4.18829e-06
1.45073e-05
-7.5363e-06
1.0452e-05
-7.63309e-06
9.49074e-06
-8.10964e-06
8.0441e-06
-1.01421e-05
2.41455e-07
-4.7601e-07
3.1726e-07
-8.9803e-08
3.45065e-07
3.86351e-07
6.4117e-07
3.24166e-07
2.43686e-07
-1.67685e-07
1.00812e-07
-5.34154e-07
2.06388e-07
-9.45218e-07
4.77867e-07
-1.50757e-06
1.06854e-06
-1.78995e-06
1.57645e-06
-1.50286e-06
-2.96945e-06
-3.41215e-08
-6.14139e-06
-9.12305e-07
-5.36246e-06
-5.53578e-06
-1.06095e-05
-9.93783e-06
-1.6057e-05
-1.40763e-05
-1.95363e-05
-1.14991e-05
-1.58592e-05
4.42206e-06
-2.40849e-05
3.60033e-06
-6.86711e-06
4.10288e-06
-7.31065e-06
3.07125e-06
-7.12108e-06
-6.78918e-07
1.26237e-07
-2.27955e-07
2.77815e-07
1.08271e-07
3.91761e-07
5.21492e-07
3.59687e-07
2.79261e-07
-7.66853e-08
1.93082e-07
-4.40037e-07
3.37732e-07
-9.01378e-07
6.06933e-07
-1.43976e-06
1.17351e-06
-1.9495e-06
1.9556e-06
-1.89028e-06
2.15339e-06
-1.92572e-06
-5.10915e-09
-1.07015e-06
-3.14302e-06
-1.11795e-06
-3.37473e-06
-2.79628e-06
-2.18567e-06
-2.03336e-06
2.22853e-06
4.16857e-06
2.40157e-06
7.93895e-06
4.04833e-06
4.20422e-06
5.43624e-07
2.48483e-06
1.21994e-06
1.31642e-06
3.37919e-06
-1.42416e-07
-2.88491e-07
5.7446e-08
-8.86371e-08
3.73543e-07
2.70797e-07
6.44396e-07
3.63296e-07
4.60337e-07
7.27701e-08
3.90693e-07
-2.23454e-07
4.43989e-07
-6.68006e-07
7.54978e-07
-1.17159e-06
1.34784e-06
-1.61281e-06
2.26574e-06
-1.94393e-06
2.77866e-06
-1.52101e-06
1.9691e-06
-6.72353e-06
-2.00842e-06
-1.36811e-05
-7.39128e-06
-1.36253e-05
-1.10922e-05
-8.05743e-06
-9.69309e-06
-2.24741e-06
-4.30856e-06
3.08377e-06
-1.87063e-06
-1.73823e-06
4.34518e-06
-5.53234e-06
6.30928e-06
-7.4213e-06
9.44204e-06
-5.32959e-07
-2.80048e-07
-2.53167e-07
2.9856e-07
3.48541e-08
6.26179e-07
3.58805e-07
7.33722e-07
3.41713e-07
4.85827e-07
3.79475e-07
2.07221e-07
6.02539e-07
-1.42053e-07
1.04914e-06
-6.3106e-07
1.91745e-06
-1.26975e-06
3.32235e-06
-1.14662e-06
3.54742e-06
5.79278e-07
-5.87972e-06
8.19404e-07
-1.63975e-05
-1.80536e-06
-1.63663e-05
-3.80784e-06
-1.86897e-05
-7.13457e-06
-2.06953e-05
-8.92794e-06
-1.30657e-05
2.37377e-06
-1.30951e-05
-1.48437e-06
5.08993e-06
-5.08352e-06
7.85299e-06
-7.67725e-06
1.0485e-05
-3.88494e-07
-3.29506e-07
-3.88725e-08
-9.08339e-09
3.68473e-07
1.81771e-07
7.29271e-07
2.14397e-07
7.72307e-07
1.09309e-07
9.37403e-07
6.87512e-08
1.26052e-06
-2.45934e-08
1.75776e-06
-1.18931e-07
2.31542e-06
-4.07628e-07
2.87993e-06
-5.66836e-07
3.75907e-06
-1.77722e-06
7.68996e-06
-4.90422e-07
1.40901e-05
8.60783e-06
2.07992e-05
1.74135e-05
2.84704e-05
2.57496e-05
2.82915e-05
1.76458e-05
1.6377e-05
3.01295e-05
1.68499e-06
7.61537e-06
-6.04336e-06
1.10356e-05
-1.18201e-05
1.58633e-05
-1.701e-05
-1.69533e-07
-3.16417e-08
-3.29877e-11
6.89796e-08
5.3871e-08
2.00111e-07
1.12801e-07
2.69414e-07
1.13247e-07
3.81237e-07
1.59641e-07
5.77134e-07
1.82495e-07
8.74143e-07
3.23661e-07
1.2176e-06
2.29316e-07
1.72134e-06
-2.5813e-07
2.81194e-06
-4.79155e-07
4.81737e-06
-1.55429e-06
7.96931e-06
-6.62361e-08
1.12873e-05
2.69221e-06
1.10367e-05
1.98159e-06
1.72198e-06
1.18803e-06
-3.24115e-06
4.88569e-06
-1.11619e-06
6.5552e-06
4.71113e-06
5.66064e-06
6.34549e-06
2.63413e-06
8.12044e-06
-1.95422e-06
0.0906602
0.00581686
0.00809241
-0.00766917
-0.0771833
0.0122799
-0.028513
-0.00113194
-0.00792846
-0.000622359
-0.0008177
-0.00234706
0.00109312
-0.00389855
0.00109774
-0.00102742
-0.00115221
0.00247788
0.00487495
0.00219611
0.00352879
0.00137483
0.00356618
0.0021427
0.00246838
0.00248493
0.00136637
-0.000772092
-0.000891535
0.000501469
-0.00189948
0.000935266
-0.00173174
-0.00111218
-0.000395711
-0.00117221
-8.49738e-05
0.000342448
-0.000866462
-0.000357478
-0.00071679
-9.29831e-05
-0.00115452
0.000408162
-0.00089558
6.75618e-05
0.000586145
0.00138507
0.00217869
-0.0004827
0.00144695
-0.00341673
-0.00282911
0.00105568
-0.00102328
0.00239766
0.002006
-0.00199282
0.0013499
-0.00151309
-0.00108756
0.00153139
-0.00524682
0.00324498
0.00178326
-0.000273227
-8.76161e-05
-0.000932556
-3.1668e-05
-0.000305071
-0.000249972
0.000146093
-0.000169534
0.000105621
0.0700074
0.029606
0.00780825
-0.00471481
-0.0162428
-0.00349177
-0.0066636
-0.00287434
-0.00172459
-0.000446281
-0.000207442
-0.000200807
-9.89671e-05
-0.000275688
-0.00011855
-0.000931628
-0.00393513
-0.00120074
-0.000392246
-0.00237553
-0.00113278
-0.00239419
-0.000486988
-0.00143485
-0.0013495
-0.00119824
-0.0021407
0.00107971
0.000903134
0.000809201
0.000590593
0.000512392
0.000210196
0.000214085
0.000562377
0.000445601
0.000617334
0.000514165
0.00027909
0.000263341
0.00020874
0.000382217
0.000274314
0.000305006
9.50353e-05
-0.000439415
-7.04907e-05
-3.36221e-05
0.00141298
-0.00256631
0.00185529
-0.00225606
-0.00201873
0.00159125
-0.00120268
0.00136375
0.00109257
0.000630256
0.000904446
-0.000927427
-0.000444745
-0.000423815
-0.000631814
-0.000231734
0.00146709
0.000989291
0.000682118
-0.000145754
-0.000173252
-0.000824046
-0.000979767
-0.000410092
-6.82299e-05
0.00023233
-0.00107866
-0.00195159
-0.00103406
0.000121292
-0.00719472
-0.00132556
-0.00153056
-0.000955903
-0.000359296
-0.000307792
-0.000505803
-0.000610737
-0.000676103
-0.00075197
-0.000700329
-0.00152935
-0.00117255
0.00100742
0.0018148
0.00101723
0.00127114
0.000935646
0.0010443
0.00101342
0.00108107
0.00121249
0.000900751
-0.000474288
-0.000344924
-0.00029678
-0.000379199
-0.000225347
-0.000279606
-0.000328632
-0.000229994
-0.00016814
-0.000193433
-0.00010058
-0.00021429
-0.000257978
-0.000332984
-0.000182268
-0.000246364
0.000170752
-8.05206e-05
4.71713e-05
0.000275735
0.000654409
0.000415154
0.000462907
-0.000117943
-0.00099239
-0.00136857
5.03819e-05
-0.000267012
0.00107105
0.000623276
-0.000609634
0.000486791
-0.000377192
8.21594e-05
0.000445731
-0.000354628
-0.000284528
0.000426946
-0.000325572
-0.000181116
-0.000270501
0.000223409
2.46981e-05
6.48005e-05
6.83483e-05
-0.000117092
-2.96262e-05
0.0271825
0.0187868
0.00750254
-3.21115e-05
-0.00600496
-0.00342846
-0.00333915
-0.00241234
-0.0014141
-0.000858557
-0.000671073
-0.00050339
-0.000400804
-0.000228427
-0.000148436
-0.000478089
0.000334353
0.00143476
1.3948e-05
-0.000418836
-0.000590541
-0.000455858
-0.000580801
-0.000574662
-0.000631395
-0.000358333
-0.000639509
0.000585826
0.000548384
0.000440733
0.000383398
0.000320211
0.000227133
0.000173896
0.000395723
0.000307998
0.000298803
0.000254336
0.000175089
0.000256162
0.000265592
0.000380662
0.00026334
0.0001925
4.59851e-05
-0.000116323
-0.000232747
-0.000217009
-0.000297317
-0.000239104
0.000205156
0.000143366
-0.000286387
0.000573354
-0.000476605
9.8231e-05
-0.000287199
0.000412988
0.000582108
-0.000744354
-0.00045383
-0.000352882
-0.000249487
-0.000238022
0.00117635
0.000906981
0.000491988
-0.000158649
-0.000253283
-0.000664658
-0.000780547
-0.000356941
2.96978e-05
0.000188981
-0.00246862
-0.00203857
-0.00220762
-0.00101109
-0.00224603
-0.00109541
-0.000439245
-0.00047217
0.000213146
2.57229e-05
-5.41877e-05
-0.000202861
-0.000341059
-0.000327934
-0.000447667
-0.00105844
-0.000623695
0.000155178
0.000794541
0.000515517
0.000521106
0.000508807
0.000585507
0.000581826
0.000590911
0.000645138
0.000503712
-0.000397064
-0.000315919
-0.0002783
-0.000268189
-0.000241095
-0.000190293
-0.000243952
-0.000217971
-0.000163296
-0.000260675
-0.000214127
-0.000251353
-0.000299168
-0.000306207
-0.000147978
-0.000167497
9.69746e-05
-7.43685e-05
2.67238e-05
0.000223792
0.000441361
0.000284229
0.000188586
-0.000107274
-0.000748092
-0.000939026
-4.16027e-05
4.27633e-05
0.000712681
0.000555545
-0.000492781
0.000270089
-9.12133e-05
0.000237631
0.000408262
5.70316e-06
-0.000373148
3.76404e-05
-0.000409272
-0.000277704
-0.000176461
0.00026556
0.000158839
0.000211323
6.85455e-05
-0.000110022
-7.29676e-05
0.00517354
0.00457706
0.00275249
0.000915594
-0.000963893
-0.00125627
-0.00146755
-0.0013682
-0.000970737
-0.00075218
-0.000637841
-0.000483448
-0.000337202
-0.000139706
-6.03872e-05
9.47794e-06
-9.35299e-06
0.000796463
-9.20907e-05
-0.000354282
-0.00049155
-0.000326426
-0.000388471
-0.00041527
-0.000480488
-0.000327802
-0.000510984
0.000326712
0.000324025
0.000262269
0.000250733
0.000212543
0.000179529
0.000135669
0.000228573
0.000145947
0.00010559
0.000147124
0.000160878
0.000288041
0.000288126
0.000305552
0.000180229
7.09148e-05