/*--------------------------------*- C++ -*----------------------------------*\
| =========                 |                                                 |
| \\      /  F ield         | OpenFOAM: The Open Source CFD Toolbox           |
|  \\    /   O peration     | Version:  2312                                  |
|   \\  /    A nd           | Website:  www.openfoam.com                      |
|    \\/     M anipulation  |                                                 |
\*---------------------------------------------------------------------------*/
FoamFile
{
    version     2.0;
    format      ascii;
    arch        "LSB;label=32;scalar=64";
    class       volScalarField;
    location    "150";
    object      magR;
}
// * * * * * * * * * * * * * * * * * * * * * * * * * * * * * * * * * * * * * //

dimensions      [0 2 -2 0 0 0 0];

internalField   nonuniform List<scalar> 
11040
(
1.63666
3.39076
5.23617
6.7927
8.83649
14.7883
11.8178
10.5738
10.5839
11.9135
15.3345
19.5756
24.0802
28.3803
32.0961
34.9982
37.0099
38.17
38.5703
38.3263
37.4284
35.9823
34.385
32.831
31.2969
29.6915
28.0162
26.2825
24.489
22.6299
20.6996
18.6962
16.6244
14.4911
12.3093
10.1183
7.87137
5.16591
3.28213
2.33338
1.2648
0.221321
0.27453
0.462076
1.19934
3.12538
8.65366
16.3976
25.1057
37.0954
49.3987
52.9925
49.9018
44.1781
38.2907
33.1578
28.892
25.3472
22.3846
19.9285
17.8845
16.1684
14.8348
13.7174
12.6893
11.7945
11.0389
10.4096
9.8816
9.43318
9.04655
8.70979
8.4139
8.1518
7.91459
7.6942
7.4729
7.2244
6.80994
6.38349
5.78266
8.9916
0.127453
0.0968461
0.0829967
0.0616418
0.0509325
0.444763
1.70916
4.12407
7.74219
12.2282
17.1731
22.2485
27.0784
31.1246
33.856
34.9353
34.3593
32.4884
29.857
27.0061
24.2975
21.9695
20.1257
18.5726
17.2744
16.1719
15.2162
14.3749
13.6242
12.9487
12.3375
11.7851
11.2889
10.8441
10.4504
10.1032
9.80749
9.51218
9.29382
8.59316
9.56207
0.0899655
0.0822793
0.0709954
0.061877
0.0524466
0.0323071
0.0182805
0.0288972
0.130375
0.321565
0.58015
0.909328
1.41885
2.30543
3.78412
5.98584
8.86003
12.1264
15.3395
18.0259
19.8656
20.7358
20.7947
20.2936
19.5133
18.6559
17.8024
16.996
16.256
15.589
14.9929
14.462
13.9891
13.564
13.1814
12.8331
12.5278
12.2196
12.0055
11.3543
11.8022
0.0623584
0.0602016
0.0554742
0.0481579
0.0420526
0.0362915
0.0263271
0.0142987
0.0054127
0.00135453
0.000246888
0.000106004
0.000173996
0.000300984
0.000514826
0.00396631
0.0415766
0.183717
0.547593
1.3017
2.62075
4.44608
6.47104
8.43345
10.1679
11.6057
12.7217
13.5329
14.0824
14.4225
14.6052
14.6758
14.6713
14.6184
14.5377
14.438
14.3365
14.1994
14.1168
13.734
13.9427
0.0424613
0.0427221
0.0413242
0.0379834
0.0341247
0.0312167
0.0289467
0.0258023
0.0212534
0.0162979
0.012177
0.0092571
0.00726233
0.00560563
0.00405243
0.00122707
0.000972306
1.20703e-05
0.047895
0.000188423
0.00781296
0.0189341
0.0855752
0.276246
0.632247
1.18206
1.93288
2.86867
3.95758
5.15638
6.41812
7.69681
8.95042
10.1473
11.2591
12.2565
13.1243
13.8329
14.4326
14.7292
15.31
0.0294811
0.0302436
0.0308544
0.0303555
0.0287144
0.0264768
0.0242974
0.0223594
0.0204172
0.0182494
0.0158906
0.0135256
0.0113866
0.00965703
0.00840896
0.00747663
0.00667517
0.00558112
0.00409083
0.00178884
2.81306e-05
0.00661914
5.3221e-07
0.0119882
0.0119414
0.0104107
0.0179202
0.0293649
0.0729886
0.181889
0.39039
0.737459
1.26476
2.01399
3.01648
4.27961
5.778
7.46292
9.26862
10.9379
13.0409
0.0206824
0.0213527
0.0222733
0.0226649
0.0223111
0.0214036
0.0201986
0.018831
0.017304
0.0156018
0.0137605
0.0118681
0.0100649
0.00851076
0.00729022
0.00640351
0.00575296
0.00528469
0.00485507
0.00444501
0.00388685
0.00324877
0.00240492
0.00172664
0.000612476
0.00106346
0.00245818
0.00656683
0.00016964
0.0089897
0.00616348
0.00480704
0.0140689
0.0350504
0.0951832
0.23985
0.533065
1.06211
1.93221
3.10086
5.1947
0.0146691
0.0151499
0.0159428
0.0166201
0.0169258
0.0168167
0.0163609
0.0156353
0.0146734
0.0134922
0.0121367
0.0106852
0.00924841
0.007946
0.00685609
0.00599662
0.0053353
0.00482256
0.0044129
0.00407994
0.00382593
0.00355134
0.0032431
0.00285429
0.00256966
0.00222808
0.00179818
0.00139632
0.000922589
0.000500388
1.16891e-05
0.000382255
0.00123951
0.00394247
0.000194538
0.0017543
0.00533239
0.0162509
0.0566048
0.152069
0.523719
0.0104701
0.0107908
0.0113602
0.0119628
0.0124277
0.0126654
0.0126564
0.0124182
0.0119647
0.0113049
0.0104644
0.00949125
0.00845961
0.0074581
0.00655892
0.00579922
0.00517979
0.0046787
0.0042697
0.00392842
0.00364365
0.00340156
0.00319287
0.0030054
0.00285212
0.00273181
0.00261152
0.00245051
0.00226353
0.00204738
0.00189412
0.00160883
0.00121075
0.000752379
0.000311665
0.000186858
0.000293856
0.000867707
0.00317713
0.00758832
0.00245872
0.0075055
0.00771396
0.00809528
0.00854564
0.00897397
0.00931135
0.00951254
0.0095555
0.00943135
0.00913795
0.00868907
0.00810806
0.00743628
0.00673236
0.00605277
0.00543819
0.00490685
0.00445732
0.004078
0.00375466
0.00347599
0.00323747
0.00303115
0.00285079
0.0026962
0.00256904
0.00246747
0.00238644
0.0023241
0.00227156
0.00223787
0.002199
0.00212919
0.00199123
0.00174184
0.001384
0.00104558
0.000660981
0.000139599
3.00188e-05
9.08988e-05
0.00539237
0.00552575
0.00577292
0.00608267
0.00641042
0.0067163
0.006964
0.00712587
0.0071822
0.00712152
0.00694248
0.00665382
0.00627427
0.00583641
0.00537689
0.00492828
0.00451273
0.00414037
0.00381192
0.00352285
0.00326887
0.00304963
0.00286037
0.00269368
0.00254798
0.0024229
0.00231691
0.0022274
0.00215222
0.00208885
0.00203701
0.00199563
0.00196353
0.00193614
0.00191069
0.00188339
0.00183028
0.00174931
0.00152173
0.00121574
0.000708398
0.00387786
0.00396253
0.00412071
0.00432608
0.00455752
0.00479499
0.0050164
0.00520061
0.00532927
0.00538723
0.00536683
0.00526627
0.0050917
0.00485765
0.00458383
0.00429133
0.00399853
0.00371825
0.00345741
0.00321794
0.00300085
0.00280997
0.00264391
0.00249692
0.00236703
0.00225325
0.00215424
0.00206809
0.00199279
0.00192658
0.00186772
0.00181496
0.00176747
0.00172478
0.00168629
0.00165253
0.0016227
0.00160032
0.00158133
0.00155316
0.00146415
0.00278845
0.00284185
0.00294259
0.00307629
0.00323292
0.00340293
0.00357441
0.00373448
0.00387034
0.00396996
0.00402442
0.0040283
0.00398007
0.00388416
0.00374887
0.00358521
0.00340472
0.0032176
0.00303147
0.00285091
0.00267989
0.00252466
0.00238659
0.0022623
0.00215073
0.00205115
0.00196261
0.00188386
0.0018135
0.0017502
0.00169269
0.00163979
0.00159047
0.00154375
0.00149881
0.00145508
0.0014121
0.00137017
0.00133118
0.00129172
0.00126827
0.00200314
0.00203684
0.00210106
0.00218741
0.0022912
0.00240801
0.00253166
0.00265507
0.00277066
0.00287042
0.00294741
0.00299606
0.00301269
0.00299641
0.00294947
0.00287623
0.00278231
0.00267379
0.00255634
0.00243431
0.00231209
0.00219633
0.00208975
0.00199102
0.00190025
0.00181729
0.00174167
0.00167275
0.00160975
0.00155184
0.0014982
0.00144804
0.00140064
0.00135524
0.00131123
0.00126812
0.00122539
0.00118249
0.00113934
0.0010932
0.00105551
0.00143716
0.00145862
0.00149964
0.00155505
0.00162292
0.00170122
0.00178671
0.0018756
0.00196371
0.00204635
0.00211894
0.00217748
0.00221849
0.00223971
0.00224032
0.00222124
0.00218456
0.00213294
0.0020695
0.00199713
0.00191916
0.00184103
0.0017657
0.00169314
0.00162422
0.00155934
0.00149852
0.00144157
0.00138822
0.00133807
0.00129072
0.00124569
0.0012026
0.00116096
0.00112039
0.00108063
0.0010414
0.00100237
0.000963302
0.000922809
0.000887151
0.00103193
0.00104562
0.0010718
0.00110723
0.00115136
0.00120326
0.00126112
0.00132287
0.00138629
0.00144873
0.00150751
0.00156006
0.00160394
0.00163703
0.00165786
0.00166569
0.00166076
0.00164395
0.00161648
0.00157974
0.00153563
0.00148787
0.00143898
0.0013895
0.00134056
0.00129283
0.00124664
0.00120214
0.00115936
0.00111825
0.00107867
0.00104044
0.00100343
0.000967388
0.000932122
0.000897554
0.000863578
0.000830028
0.000796782
0.000763265
0.000733059
0.00075031
0.000759104
0.000776151
0.000799305
0.000828584
0.000863541
0.000903061
0.000945914
0.000990844
0.00103638
0.00108093
0.00112298
0.00116097
0.0011934
0.00121897
0.00123673
0.00124609
0.00124695
0.00123964
0.0012246
0.00120263
0.00117594
0.0011463
0.0011144
0.0010813
0.00104772
0.00101409
0.000980718
0.000947817
0.000915501
0.000883826
0.000852787
0.000822392
0.000792566
0.000763249
0.000734477
0.000706265
0.000678525
0.000651243
0.000624195
0.00059937
0.00055823
0.000564061
0.000575576
0.000591259
0.000611367
0.000635676
0.000663428
0.00069382
0.000726077
0.000759304
0.000792527
0.000824802
0.00085514
0.000882525
0.000906001
0.000924747
0.000938148
0.000945802
0.000947554
0.000943488
0.000933876
0.000919886
0.000902646
0.000882735
0.000861
0.000838035
0.000814274
0.000790042
0.000765594
0.00074112
0.000716752
0.000692571
0.000668665
0.000645043
0.000621714
0.000598759
0.000576258
0.000554149
0.000532451
0.000511131
0.000491236
0.000425084
0.00042904
0.000436991
0.000447871
0.000462027
0.000479334
0.000499235
0.000521167
0.000544608
0.000568978
0.000593647
0.000618011
0.000641436
0.000663246
0.000682779
0.000699425
0.000712668
0.000722096
0.000727429
0.000728507
0.000725332
0.000718528
0.000708791
0.000696543
0.000682401
0.00066683
0.000650186
0.000632773
0.000614843
0.00059659
0.000578171
0.000559698
0.000541293
0.000523002
0.000504867
0.000486978
0.000469447
0.000452215
0.000435315
0.000418762
0.000403248
0.000329501
0.000332192
0.000337757
0.000345452
0.00035563
0.000368212
0.000382773
0.000398893
0.000416206
0.000434309
0.00045277
0.000471182
0.000489122
0.000506127
0.000521737
0.000535511
0.000547054
0.000556022
0.000562146
0.000565225
0.000565145
0.000562191
0.000556787
0.000549258
0.000540042
0.000529471
0.000517825
0.000505357
0.000492284
0.000478778
0.000464992
0.000451037
0.000437038
0.000423054
0.000409134
0.000395367
0.000381869
0.000368584
0.000355562
0.000342767
0.000330944
0.00025908
0.000260913
0.000264861
0.000270401
0.000277855
0.000287167
0.000297998
0.00031003
0.000322987
0.000336578
0.000350493
0.000364446
0.000378141
0.000391256
0.00040347
0.000414466
0.000423954
0.000431669
0.000437388
0.000440929
0.000442157
0.000441192
0.000438286
0.000433658
0.00042762
0.000420414
0.000412253
0.000403331
0.000393827
0.000383886
0.000373632
0.000363169
0.000352609
0.000342008
0.000331416
0.000320907
0.000310593
0.000300419
0.000290446
0.000280557
0.000271704
0.000206075
0.000207318
0.000210146
0.000214194
0.00021974
0.000226736
0.000234912
0.000244016
0.000253836
0.000264154
0.000274741
0.000285385
0.000295873
0.000305976
0.00031546
0.000324101
0.000331683
0.000338007
0.000342901
0.000346212
0.000347822
0.000347781
0.000346242
0.000343358
0.000339345
0.000334373
0.000328599
0.000322174
0.000315239
0.00030791
0.000300288
0.000292459
0.000284518
0.000276513
0.000268487
0.000260502
0.000252654
0.000244893
0.000237286
0.000229642
0.00022312
0.000165481
0.000166316
0.000168361
0.00017136
0.000175545
0.000180873
0.000187123
0.000194095
0.000201621
0.000209532
0.000217653
0.000225825
0.00023389
0.000241677
0.000249019
0.000255749
0.00026171
0.000266755
0.000270753
0.000273586
0.000275157
0.000275489
0.000274685
0.000272849
0.000270129
0.000266648
0.00026252
0.000257861
0.000252776
0.000247362
0.000241694
0.000235835
0.000229869
0.000223835
0.000217765
0.00021171
0.000205752
0.000199843
0.000194054
0.000188141
0.000183402
0.000133937
0.000134492
0.000135982
0.000138232
0.000141431
0.000145537
0.00015037
0.000155767
0.000161593
0.000167715
0.000173997
0.000180316
0.000186551
0.000192576
0.000198263
0.000203492
0.000208146
0.000212116
0.000215303
0.000217619
0.00021899
0.000219426
0.000219003
0.000217793
0.000215902
0.000213418
0.000210426
0.000207012
0.000203254
0.000199226
0.000194989
0.00019059
0.000186093
0.000181531
0.000176931
0.000172331
0.000167799
0.000163293
0.000158882
0.000154298
0.000150889
0.000109126
0.000109488
0.000110583
0.000112293
0.000114768
0.000117968
0.000121744
0.000125963
0.000130515
0.000135293
0.00014019
0.000145109
0.000149957
0.000154636
0.000159052
0.000163114
0.000166734
0.000169831
0.000172335
0.000174176
0.000175301
0.000175719
0.000175487
0.000174659
0.000173311
0.000171505
0.000169306
0.000166775
0.000163974
0.000160955
0.000157771
0.000154457
0.000151055
0.000147598
0.000144105
0.000140605
0.000137152
0.000133711
0.000130344
0.000126785
0.000124349
8.94069e-05
8.96371e-05
9.04497e-05
9.17665e-05
9.37042e-05
9.62249e-05
9.92043e-05
0.000102532
0.000106119
0.000109879
0.000113724
0.000117579
0.00012137
0.000125022
0.000128463
0.000131624
0.000134439
0.000136849
0.0001388
0.000140242
0.000141136
0.000141492
0.000141355
0.000140765
0.000139778
0.000138441
0.0001368
0.000134902
0.000132794
0.000130514
0.000128105
0.000125591
0.000123006
0.000120373
0.000117708
0.000115033
0.000112389
0.000109751
0.00010717
0.000104398
0.000102661
7.35953e-05
7.37371e-05
7.43469e-05
7.53753e-05
7.69106e-05
7.89167e-05
8.12897e-05
8.39382e-05
8.6788e-05
8.97682e-05
9.28094e-05
9.58498e-05
9.88316e-05
0.000101696
0.000104388
0.000106855
0.000109047
0.00011092
0.000112435
0.000113553
0.000114249
0.000114531
0.000114439
0.000114003
0.000113263
0.000112255
0.000111013
0.000109574
0.000107973
0.000106239
0.000104403
0.000102486
0.00010051
9.84955e-05
9.64535e-05
9.44008e-05
9.23696e-05
9.03388e-05
8.83539e-05
8.61925e-05
8.49543e-05
6.08194e-05
6.09029e-05
6.13673e-05
6.21829e-05
6.34144e-05
6.50275e-05
6.6935e-05
6.90605e-05
7.13424e-05
7.37222e-05
7.61437e-05
7.85571e-05
8.09161e-05
8.31751e-05
8.52907e-05
8.72228e-05
8.89345e-05
9.0392e-05
9.15664e-05
9.24307e-05
9.29648e-05
9.31803e-05
9.31105e-05
9.27776e-05
9.22124e-05
9.14418e-05
9.04924e-05
8.93916e-05
8.81653e-05
8.68367e-05
8.5426e-05
8.39545e-05
8.24376e-05
8.08855e-05
7.93123e-05
7.77292e-05
7.61603e-05
7.45899e-05
7.30558e-05
7.13662e-05
7.0478e-05
5.04275e-05
5.04739e-05
5.08344e-05
5.14921e-05
5.24925e-05
5.38031e-05
5.53506e-05
5.70707e-05
5.89118e-05
6.08258e-05
6.27668e-05
6.46944e-05
6.65715e-05
6.83623e-05
7.0033e-05
7.15528e-05
7.28939e-05
7.40308e-05
7.49425e-05
7.56092e-05
7.60167e-05
7.61769e-05
7.61187e-05
7.58587e-05
7.54203e-05
7.48244e-05
7.40911e-05
7.32415e-05
7.22952e-05
7.127e-05
7.01812e-05
6.90448e-05
6.78729e-05
6.66731e-05
6.54559e-05
6.42296e-05
6.30128e-05
6.17938e-05
6.06031e-05
5.92803e-05
5.86386e-05
4.19255e-05
4.19497e-05
4.22363e-05
4.27765e-05
4.35999e-05
4.46761e-05
4.5943e-05
4.73466e-05
4.88434e-05
5.03936e-05
5.19596e-05
5.35087e-05
5.50112e-05
5.64386e-05
5.77648e-05
5.8966e-05
6.00211e-05
6.09113e-05
6.16211e-05
6.21364e-05
6.24471e-05
6.25645e-05
6.25139e-05
6.23077e-05
6.19638e-05
6.14984e-05
6.09276e-05
6.02671e-05
5.95323e-05
5.87366e-05
5.78917e-05
5.70091e-05
5.60992e-05
5.51669e-05
5.42203e-05
5.32661e-05
5.23177e-05
5.13672e-05
5.04384e-05
4.94008e-05
4.893e-05
3.49346e-05
3.4947e-05
3.51814e-05
3.56337e-05
3.63207e-05
3.72139e-05
3.82607e-05
3.94153e-05
4.06412e-05
4.19055e-05
4.31772e-05
4.44298e-05
4.56395e-05
4.67837e-05
4.78421e-05
4.87965e-05
4.96308e-05
5.03311e-05
5.08862e-05
5.12859e-05
5.15231e-05
5.16087e-05
5.15647e-05
5.14003e-05
5.11294e-05
5.07648e-05
5.03188e-05
4.98038e-05
4.92314e-05
4.86115e-05
4.79536e-05
4.72651e-05
4.65565e-05
4.58308e-05
4.50919e-05
4.43472e-05
4.36062e-05
4.28631e-05
4.21367e-05
4.13229e-05
4.09745e-05
2.91608e-05
2.91685e-05
2.93665e-05
2.97528e-05
3.03339e-05
3.10832e-05
3.19559e-05
3.29133e-05
3.39247e-05
3.49628e-05
3.60022e-05
3.70214e-05
3.80011e-05
3.89237e-05
3.97732e-05
4.05357e-05
4.11992e-05
4.17533e-05
4.219e-05
4.2502e-05
4.26844e-05
4.27471e-05
4.27094e-05
4.2578e-05
4.23636e-05
4.20764e-05
4.1726e-05
4.1322e-05
4.08734e-05
4.03879e-05
3.98727e-05
3.9334e-05
3.87793e-05
3.82113e-05
3.7633e-05
3.70499e-05
3.64685e-05
3.58857e-05
3.53152e-05
3.46763e-05
3.4411e-05
2.4374e-05
2.43818e-05
2.45547e-05
2.48912e-05
2.53893e-05
2.60244e-05
2.67583e-05
2.75584e-05
2.83988e-05
2.92568e-05
3.01118e-05
3.09461e-05
3.17444e-05
3.24927e-05
3.31787e-05
3.37918e-05
3.4323e-05
3.47645e-05
3.51109e-05
3.53571e-05
3.54998e-05
3.55475e-05
3.55174e-05
3.54141e-05
3.52459e-05
3.50212e-05
3.47476e-05
3.44323e-05
3.40821e-05
3.37032e-05
3.33011e-05
3.28804e-05
3.24471e-05
3.20036e-05
3.15515e-05
3.10954e-05
3.06401e-05
3.01835e-05
2.97362e-05
2.92351e-05
2.9035e-05
2.03924e-05
2.04032e-05
2.05595e-05
2.08579e-05
2.12903e-05
2.18337e-05
2.24559e-05
2.31292e-05
2.38322e-05
2.4546e-05
2.52537e-05
2.5941e-05
2.65955e-05
2.72064e-05
2.77641e-05
2.82604e-05
2.86887e-05
2.90434e-05
2.93206e-05
2.95169e-05
2.96297e-05
2.96667e-05
2.96425e-05
2.95607e-05
2.94278e-05
2.92503e-05
2.90345e-05
2.87861e-05
2.85104e-05
2.82121e-05
2.78954e-05
2.75644e-05
2.72231e-05
2.68741e-05
2.65184e-05
2.61596e-05
2.58011e-05
2.54417e-05
2.50889e-05
2.46963e-05
2.45342e-05
1.70713e-05
1.7087e-05
1.72322e-05
1.75012e-05
1.78807e-05
1.83496e-05
1.88808e-05
1.94511e-05
2.00426e-05
2.064e-05
2.12294e-05
2.17992e-05
2.23395e-05
2.28417e-05
2.32983e-05
2.37033e-05
2.40519e-05
2.434e-05
2.45651e-05
2.47251e-05
2.48184e-05
2.48515e-05
2.48374e-05
2.47781e-05
2.46788e-05
2.45447e-05
2.43807e-05
2.41909e-05
2.39794e-05
2.375e-05
2.3506e-05
2.32504e-05
2.29857e-05
2.27152e-05
2.24394e-05
2.216e-05
2.18803e-05
2.15996e-05
2.1324e-05
2.10168e-05
2.08993e-05
1.42949e-05
1.43165e-05
1.44543e-05
1.46995e-05
1.50352e-05
1.54425e-05
1.58987e-05
1.63846e-05
1.68852e-05
1.7388e-05
1.78817e-05
1.83571e-05
1.88062e-05
1.92221e-05
1.95991e-05
1.99325e-05
2.02186e-05
2.04547e-05
2.06388e-05
2.07696e-05
2.08456e-05
2.08722e-05
2.08607e-05
2.08127e-05
2.07323e-05
2.06242e-05
2.04925e-05
2.03408e-05
2.01725e-05
1.99905e-05
1.97974e-05
1.95955e-05
1.93867e-05
1.91732e-05
1.89561e-05
1.87363e-05
1.85158e-05
1.82951e-05
1.80774e-05
1.78403e-05
1.77316e-05
1.19697e-05
1.19975e-05
1.21305e-05
1.23556e-05
1.26537e-05
1.30085e-05
1.34014e-05
1.38169e-05
1.42429e-05
1.46686e-05
1.5085e-05
1.54843e-05
1.58602e-05
1.62074e-05
1.65215e-05
1.67992e-05
1.70379e-05
1.72359e-05
1.73922e-05
1.75066e-05
1.75784e-05
1.7612e-05
1.76171e-05
1.75941e-05
1.75458e-05
1.74756e-05
1.73862e-05
1.72804e-05
1.71605e-05
1.70287e-05
1.68869e-05
1.67366e-05
1.65796e-05
1.64179e-05
1.62522e-05
1.6083e-05
1.59126e-05
1.57411e-05
1.55728e-05
1.5384e-05
1.5323e-05
1.00197e-05
1.00536e-05
1.01828e-05
1.03902e-05
1.06555e-05
1.09644e-05
1.13027e-05
1.16579e-05
1.20207e-05
1.23827e-05
1.27363e-05
1.30747e-05
1.33925e-05
1.36851e-05
1.39492e-05
1.4182e-05
1.43816e-05
1.45461e-05
1.46747e-05
1.47665e-05
1.48206e-05
1.4841e-05
1.48361e-05
1.48074e-05
1.4758e-05
1.46913e-05
1.46105e-05
1.45182e-05
1.44165e-05
1.43072e-05
1.4192e-05
1.40721e-05
1.39483e-05
1.38225e-05
1.36947e-05
1.35648e-05
1.34341e-05
1.33036e-05
1.31733e-05
1.30386e-05
1.29527e-05
8.38357e-06
8.42206e-06
8.5468e-06
8.737e-06
8.9725e-06
9.24186e-06
9.53344e-06
9.83725e-06
1.01457e-05
1.04526e-05
1.07525e-05
1.10402e-05
1.13114e-05
1.15619e-05
1.17888e-05
1.19899e-05
1.21648e-05
1.23133e-05
1.24363e-05
1.25343e-05
1.26072e-05
1.26573e-05
1.26905e-05
1.27058e-05
1.27038e-05
1.2686e-05
1.2654e-05
1.2609e-05
1.25525e-05
1.24859e-05
1.24106e-05
1.23279e-05
1.22389e-05
1.21458e-05
1.20487e-05
1.19471e-05
1.18441e-05
1.1739e-05
1.1637e-05
1.15146e-05
1.1508e-05
7.01191e-06
7.05343e-06
7.17139e-06
7.34167e-06
7.54651e-06
7.77866e-06
8.02987e-06
8.29182e-06
8.55726e-06
8.81988e-06
9.07456e-06
9.31772e-06
9.54681e-06
9.75951e-06
9.95311e-06
1.01244e-05
1.02703e-05
1.0388e-05
1.04762e-05
1.05351e-05
1.0564e-05
1.05674e-05
1.0553e-05
1.05237e-05
1.04827e-05
1.04332e-05
1.03778e-05
1.03184e-05
1.02563e-05
1.01926e-05
1.01282e-05
1.00634e-05
9.99866e-06
9.9345e-06
9.87065e-06
9.80655e-06
9.74223e-06
9.67928e-06
9.61325e-06
9.5584e-06
9.46972e-06
5.86414e-06
5.90845e-06
6.01892e-06
6.16733e-06
6.33834e-06
6.52916e-06
6.73645e-06
6.95619e-06
7.18383e-06
7.41365e-06
7.63902e-06
7.85386e-06
8.05389e-06
8.23749e-06
8.40556e-06
8.56063e-06
8.70551e-06
8.84206e-06
8.97082e-06
9.09074e-06
9.20028e-06
9.29748e-06
9.38336e-06
9.45408e-06
9.50819e-06
9.54573e-06
9.56718e-06
9.57319e-06
9.56481e-06
9.54339e-06
9.51046e-06
9.46736e-06
9.41593e-06
9.35701e-06
9.29315e-06
9.22388e-06
9.15128e-06
9.07483e-06
9.00369e-06
8.89937e-06
8.95763e-06
4.90339e-06
4.94861e-06
5.05176e-06
5.18208e-06
5.32511e-06
5.47855e-06
5.64013e-06
5.80851e-06
5.98383e-06
6.16626e-06
6.35461e-06
6.54533e-06
6.7321e-06
6.90645e-06
7.05928e-06
7.18299e-06
7.27306e-06
7.32869e-06
7.35224e-06
7.34896e-06
7.32143e-06
7.27687e-06
7.22367e-06
7.16706e-06
7.11049e-06
7.0565e-06
7.0069e-06
6.96296e-06
6.92533e-06
6.89421e-06
6.86939e-06
6.8506e-06
6.83705e-06
6.82821e-06
6.82412e-06
6.82387e-06
6.82384e-06
6.82818e-06
6.82576e-06
6.85836e-06
6.74256e-06
4.09801e-06
4.13462e-06
4.22036e-06
4.32903e-06
4.45162e-06
4.58672e-06
4.72897e-06
4.87181e-06
5.01019e-06
5.14181e-06
5.26783e-06
5.39274e-06
5.5232e-06
5.66609e-06
5.82668e-06
6.00725e-06
6.20651e-06
6.41976e-06
6.64003e-06
6.85837e-06
7.06949e-06
7.26578e-06
7.44277e-06
7.59418e-06
7.71838e-06
7.81597e-06
7.88828e-06
7.93706e-06
7.9644e-06
7.97247e-06
7.96338e-06
7.93893e-06
7.90138e-06
7.85195e-06
7.79287e-06
7.72418e-06
7.6492e-06
7.56551e-06
7.48882e-06
7.35712e-06
7.46901e-06
3.43143e-06
3.45214e-06
3.50351e-06
3.56423e-06
3.63591e-06
3.72814e-06
3.84524e-06
3.9863e-06
4.14518e-06
4.31051e-06
4.46739e-06
4.60044e-06
4.69717e-06
4.75047e-06
4.75994e-06
4.73142e-06
4.67496e-06
4.60209e-06
4.52283e-06
4.44653e-06
4.37106e-06
4.2976e-06
4.22549e-06
4.15875e-06
4.09824e-06
4.04453e-06
3.99917e-06
3.96437e-06
3.94184e-06
3.93226e-06
3.93559e-06
3.95161e-06
3.97972e-06
4.01946e-06
4.07056e-06
4.13246e-06
4.20083e-06
4.28028e-06
4.35532e-06
4.4852e-06
4.41243e-06
2.9018e-06
2.92591e-06
2.96386e-06
2.9865e-06
2.99309e-06
2.99445e-06
3.00003e-06
3.01926e-06
3.06305e-06
3.14355e-06
3.27261e-06
3.45908e-06
3.70585e-06
4.00825e-06
4.35462e-06
4.72843e-06
5.11114e-06
5.48474e-06
5.83452e-06
6.14654e-06
6.42208e-06
6.66085e-06
6.85772e-06
7.01332e-06
7.13286e-06
7.22209e-06
7.28489e-06
7.32777e-06
7.35187e-06
7.36279e-06
7.36336e-06
7.35389e-06
7.33485e-06
7.30611e-06
7.26878e-06
7.2228e-06
7.17106e-06
7.10988e-06
7.05097e-06
6.96167e-06
6.98233e-06
2.49033e-06
2.53331e-06
2.59941e-06
2.65546e-06
2.68607e-06
2.68652e-06
2.65516e-06
2.59592e-06
2.51936e-06
2.44112e-06
2.3791e-06
2.34966e-06
2.36326e-06
2.42132e-06
2.51618e-06
2.63401e-06
2.75912e-06
2.87749e-06
2.9791e-06
3.05871e-06
3.11166e-06
3.13708e-06
3.12444e-06
3.08638e-06
3.03208e-06
2.96699e-06
2.89887e-06
2.84232e-06
2.81136e-06
2.80262e-06
2.80467e-06
2.81259e-06
2.82547e-06
2.8423e-06
2.86226e-06
2.8839e-06
2.90855e-06
2.9273e-06
2.97143e-06
2.90871e-06
3.25749e-06
2.1433e-06
2.13474e-06
2.20728e-06
2.43648e-06
2.85289e-06
3.41976e-06
4.06844e-06
4.73588e-06
5.37569e-06
5.95649e-06
6.45836e-06
6.86993e-06
7.18689e-06
7.41021e-06
7.54511e-06
7.60011e-06
7.58597e-06
7.51446e-06
7.39756e-06
7.245e-06
7.06848e-06
6.91046e-06
6.74564e-06
6.58463e-06
6.43104e-06
6.28455e-06
6.14943e-06
6.00533e-06
5.84822e-06
5.69092e-06
5.53717e-06
5.38661e-06
5.23631e-06
5.08207e-06
4.92325e-06
4.75777e-06
4.58189e-06
4.39335e-06
4.17748e-06
4.03484e-06
3.52279e-06
28.1949
26.6159
21.7739
18.296
15.7388
13.61
11.7079
9.93975
8.26841
6.67923
5.19063
3.82363
2.61443
1.6051
0.842598
0.350095
0.095371
0.0117974
2.12621e-05
0.00148202
2.23644e-05
1.73861e-05
6.13107e-05
0.000106251
0.000123526
0.000112991
9.48656e-05
8.36036e-05
7.56273e-05
6.92612e-05
6.32859e-05
5.74672e-05
5.19294e-05
4.67001e-05
4.17773e-05
3.72265e-05
3.30595e-05
2.93674e-05
2.61978e-05
2.35115e-05
2.12446e-05
1.9342e-05
1.77302e-05
1.63645e-05
1.5188e-05
1.51221e-05
1.47009e-05
1.33909e-05
1.21191e-05
1.10932e-05
1.02098e-05
9.49e-06
8.80691e-06
8.16774e-06
7.58678e-06
6.98349e-06
6.39949e-06
6.15645e-06
5.37414e-06
4.83226e-06
4.33041e-06
3.98492e-06
3.74497e-06
3.36734e-06
3.01202e-06
2.74254e-06
2.4823e-06
2.2511e-06
2.0229e-06
1.80305e-06
1.75916e-06
1.49222e-06
1.47737e-06
1.03066e-06
13.5514
22.5145
22.5108
20.2699
18.003
16.0548
14.3512
12.7705
11.2442
9.74293
8.26246
6.80692
5.39184
4.04649
2.81581
1.76141
0.937197
0.39467
0.111651
0.0165156
6.66058e-05
0.00149986
0.00013003
7.77329e-07
3.78782e-05
7.66783e-05
9.7955e-05
9.66523e-05
8.33564e-05
7.21286e-05
6.38575e-05
5.74933e-05
5.21643e-05
4.72654e-05
4.25123e-05
3.79456e-05
3.36454e-05
2.97556e-05
2.63931e-05
2.35381e-05
2.11326e-05
1.91178e-05
1.74207e-05
1.60209e-05
1.46624e-05
1.56264e-05
1.51718e-05
1.44185e-05
1.33093e-05
1.22307e-05
1.12727e-05
1.05396e-05
9.88682e-06
9.24303e-06
8.6519e-06
7.99562e-06
7.34877e-06
6.54548e-06
5.41452e-06
4.79995e-06
4.28089e-06
3.90095e-06
3.68013e-06
3.36369e-06
3.00172e-06
2.7233e-06
2.46984e-06
2.23943e-06
2.00019e-06
1.75114e-06
1.69994e-06
1.45885e-06
1.44697e-06
1.02023e-06
6.08471
6.53093
11.087
13.1825
13.6901
13.5068
13.0512
12.4397
11.7036
10.8548
9.90235
8.85325
7.71881
6.51829
5.28073
4.04993
2.87533
1.83712
1.00593
0.439292
0.135831
0.0237171
0.000537618
2.27686e-05
7.05055e-05
2.33847e-05
2.8499e-05
4.51436e-05
6.6795e-05
7.70647e-05
7.22966e-05
6.2858e-05
5.4412e-05
4.794e-05
4.275e-05
3.82189e-05
3.40506e-05
3.02011e-05
2.67634e-05
2.37494e-05
2.11457e-05
1.89366e-05
1.70903e-05
1.56223e-05
1.4258e-05
1.36498e-05
1.36915e-05
1.36881e-05
1.30344e-05
1.20625e-05
1.10537e-05
1.0268e-05
9.65934e-06
9.04133e-06
8.4973e-06
7.89549e-06
7.34918e-06
6.14895e-06
5.4077e-06
4.80218e-06
4.26529e-06
3.82072e-06
3.57039e-06
3.31761e-06
2.96607e-06
2.68081e-06
2.43941e-06
2.21883e-06
1.98498e-06
1.72249e-06
1.63046e-06
1.41334e-06
1.40862e-06
1.01071e-06
13.2743
10.2091
6.0102
3.72521
4.4725
5.90046
7.07181
7.91449
8.47095
8.77027
8.82986
8.66006
8.27474
7.69345
6.9389
6.0404
5.02657
3.95402
2.88508
1.8969
1.0796
0.501195
0.171202
0.0377208
0.00267572
0.00113747
0.000693099
1.95938e-07
3.08018e-05
3.66055e-05
4.61761e-05
5.66205e-05
5.91767e-05
5.43416e-05
4.68763e-05
4.02479e-05
3.49249e-05
3.06038e-05
2.70079e-05
2.39398e-05
2.12701e-05
1.8937e-05
1.69352e-05
1.53148e-05
1.40273e-05
1.2199e-05
1.15582e-05
1.16333e-05
1.14433e-05
1.07806e-05
9.83441e-06
9.00725e-06
8.3943e-06
7.80023e-06
7.31108e-06
6.79915e-06
6.34142e-06
5.95869e-06
5.40578e-06
4.84121e-06
4.29863e-06
3.79508e-06
3.49309e-06
3.25597e-06
2.92267e-06
2.62643e-06
2.39062e-06
2.18596e-06
1.97022e-06
1.7097e-06
1.58412e-06
1.37819e-06
1.3763e-06
1.00049e-06
15.8781
15.6568
13.78
11.0368
8.06787
5.35623
3.13696
1.85151
2.25992
3.38883
4.47868
5.36286
6.00005
6.38115
6.50588
6.38101
6.01146
5.43187
4.68264
3.80723
2.8724
1.9632
1.17439
0.585227
0.224596
0.0591363
0.00740517
5.38735e-06
0.00114304
0.000127633
1.69964e-05
4.96997e-06
2.63902e-05
3.52171e-05
4.18266e-05
4.34736e-05
3.97001e-05
3.40999e-05
2.89294e-05
2.47906e-05
2.14728e-05
1.88006e-05
1.6676e-05
1.49979e-05
1.38179e-05
1.20309e-05
1.07561e-05
1.03911e-05
1.03611e-05
1.01103e-05
9.44636e-06
8.68235e-06
8.06082e-06
7.45677e-06
6.94043e-06
6.42384e-06
5.9359e-06
5.686e-06
5.30789e-06
4.8567e-06
4.35372e-06
3.82666e-06
3.46319e-06
3.20847e-06
2.88767e-06
2.57729e-06
2.33458e-06
2.13766e-06
1.94254e-06
1.69549e-06
1.5538e-06
1.35645e-06
1.35334e-06
9.96798e-07
16.3476
16.3799
15.8794
15.0033
13.6924
12.01
10.1066
8.08839
6.08305
4.17706
2.44854
1.1291
1.27927
2.3219
3.31198
4.10308
4.64293
4.92359
4.94417
4.71179
4.2508
3.60464
2.83793
2.03469
1.2923
0.698384
0.302908
0.0970642
0.0193911
0.000759026
3.27273e-05
8.42e-05
5.26262e-06
9.32596e-07
1.59523e-05
2.34109e-05
2.82015e-05
3.11498e-05
3.16802e-05
2.87115e-05
2.43273e-05
2.03523e-05
1.72004e-05
1.48216e-05
1.33279e-05
1.18452e-05
1.04501e-05
9.6051e-06
9.34938e-06
9.31147e-06
9.02081e-06
8.48185e-06
7.91831e-06
7.31879e-06
6.78429e-06
6.25909e-06
5.73044e-06
5.41366e-06
5.11126e-06
4.79239e-06
4.38799e-06
3.88783e-06
3.47961e-06
3.18621e-06
2.86584e-06
2.54341e-06
2.28702e-06
2.08697e-06
1.90539e-06
1.67345e-06
1.5262e-06
1.33994e-06
1.33458e-06
1.00117e-06
13.3131
12.7504
12.291
12.0872
11.9782
11.8457
11.5672
11.0434
10.2335
9.15334
7.85299
6.3953
4.86522
3.34299
1.90415
0.727876
0.964358
1.90983
2.7388
3.35742
3.72872
3.83771
3.68946
3.31043
2.75272
2.09141
1.42249
0.839571
0.413337
0.157049
0.0421809
0.00560024
0.000122292
0.000955452
3.84616e-05
8.61967e-06
4.53037e-06
1.23722e-05
1.76611e-05
1.93706e-05
2.16084e-05
2.19943e-05
1.98892e-05
1.69636e-05
1.44679e-05
1.23847e-05
1.05411e-05
9.08669e-06
8.30655e-06
8.1788e-06
8.22194e-06
8.10267e-06
7.79051e-06
7.26705e-06
6.71176e-06
6.16012e-06
5.61002e-06
5.20985e-06
4.88968e-06
4.65164e-06
4.36908e-06
3.94803e-06
3.53289e-06
3.19474e-06
2.85628e-06
2.52109e-06
2.25224e-06
2.04579e-06
1.87071e-06
1.64975e-06
1.49881e-06
1.32303e-06
1.31447e-06
1.00935e-06
5.48149
5.10306
4.81906
4.76436
4.89595
5.20552
5.66841
6.23108
6.81084
7.31096
7.63377
7.69576
7.44828
6.88688
6.04676
4.98924
3.79249
2.55567
1.35794
0.407385
0.921109
1.73056
2.3718
2.7884
2.95495
2.87104
2.56474
2.09294
1.53966
0.999232
0.553572
0.249869
0.0844572
0.0194406
0.00153298
0.000664281
0.000687535
5.80751e-05
1.32329e-06
5.25389e-06
1.00681e-05
1.12911e-05
1.12009e-05
1.28493e-05
1.42184e-05
1.38343e-05
1.22999e-05
1.03528e-05
8.58964e-06
7.50269e-06
7.10672e-06
7.12079e-06
7.20831e-06
7.03531e-06
6.64809e-06
6.13101e-06
5.57161e-06
5.10678e-06
4.71805e-06
4.47733e-06
4.28312e-06
3.97229e-06
3.60389e-06
3.2426e-06
2.87123e-06
2.51043e-06
2.22568e-06
2.0142e-06
1.8449e-06
1.63337e-06
1.47748e-06
1.30754e-06
1.29118e-06
1.01561e-06
0.600946
0.533504
0.475608
0.45389
0.460684
0.497828
0.584246
0.73856
0.981893
1.3362
1.81538
2.41272
3.09064
3.77877
4.38236
4.80271
4.95203
4.79629
4.34334
3.63446
2.75177
1.78453
0.824245
0.280727
0.961068
1.58744
2.02368
2.2332
2.20861
1.97612
1.59374
1.14496
0.716776
0.379757
0.161563
0.051052
0.0103024
0.000403512
0.000718102
0.000486323
1.9568e-05
1.18396e-06
4.83404e-06
8.22786e-06
6.86298e-06
5.53439e-06
6.86004e-06
8.75275e-06
9.09772e-06
8.40998e-06
7.54769e-06
6.95473e-06
6.68835e-06
6.48953e-06
6.23552e-06
5.8616e-06
5.4129e-06
5.00515e-06
4.61555e-06
4.35033e-06
4.18348e-06
3.95951e-06
3.66857e-06
3.32393e-06
2.92597e-06
2.525e-06
2.2093e-06
1.98736e-06
1.82471e-06
1.62663e-06
1.46799e-06
1.29963e-06
1.26753e-06
1.01728e-06
0.000663205
0.000358464
0.000723591
0.000719677
0.000601936
0.000516886
0.00064704
0.0016674