/*--------------------------------*- C++ -*----------------------------------*\
| =========                 |                                                 |
| \\      /  F ield         | OpenFOAM: The Open Source CFD Toolbox           |
|  \\    /   O peration     | Version:  2312                                  |
|   \\  /    A nd           | Website:  www.openfoam.com                      |
|    \\/     M anipulation  |                                                 |
\*---------------------------------------------------------------------------*/
FoamFile
{
    version     2.0;
    format      ascii;
    arch        "LSB;label=32;scalar=64";
    class       volVectorField;
    location    "150";
    object      momentError;
}
// * * * * * * * * * * * * * * * * * * * * * * * * * * * * * * * * * * * * * //

dimensions      [0 1 -2 0 0 0 0];

internalField   nonuniform List<vector> 
11040
(
(-4.42951 6.34527 -2.80085e-14)
(2.64516 26.6494 5.85265e-14)
(20.364 51.5441 2.93158e-13)
(36.1581 58.0892 1.12658e-13)
(34.404 33.8046 -2.02794e-14)
(17.7224 8.68088 2.08923e-15)
(3.43098 2.57863 -1.8047e-13)
(7.63822 -2.74008 -5.73686e-14)
(8.8641 -1.68511 1.05277e-13)
(3.18275 -1.40385 5.33101e-14)
(-0.263699 -1.9642 8.84725e-14)
(5.94337 1.40571 1.13637e-13)
(13.4533 2.48226 -4.11037e-14)
(15.187 1.99043 -5.97144e-14)
(14.8025 1.35982 -2.92208e-14)
(14.9187 1.18433 4.05313e-15)
(15.003 1.11046 -4.17427e-15)
(14.3143 0.869504 7.00813e-16)
(13.1223 0.509492 -7.94841e-17)
(11.9637 0.158462 -6.78042e-16)
(10.3701 -0.0864524 -3.76483e-15)
(9.99663 -0.341456 4.70462e-15)
(9.70428 -0.523036 6.95259e-15)
(10.4573 -0.704678 1.22458e-14)
(11.6912 -0.777658 6.95191e-15)
(9.51299 -0.790571 -1.44814e-14)
(9.29942 -0.854318 -4.97479e-15)
(9.07575 -0.915161 -9.24907e-15)
(8.85081 -0.973737 -1.02432e-15)
(8.61422 -1.02179 1.0977e-15)
(8.37232 -1.06514 1.37319e-14)
(8.07896 -1.09443 4.99984e-15)
(7.71246 -1.10904 8.367e-15)
(7.19454 -1.08205 1.45899e-14)
(6.52025 -0.915811 1.89693e-16)
(5.85147 0.100238 6.47674e-15)
(8.51041 4.65763 2.34185e-15)
(25.862 4.17249 -5.36667e-16)
(30.8794 -2.49716 6.40691e-19)
(21.5225 -5.67719 8.9752e-17)
(1.97088 -2.62461 1.85603e-16)
(-4.23279 11.5558 1.74255e-14)
(8.39348 3.16186 5.42598e-14)
(37.9023 -18.9338 -1.10961e-13)
(66.2561 -14.7978 -3.09448e-13)
(92.058 14.8403 -1.8459e-14)
(101.261 41.6621 -3.76217e-14)
(95.5529 48.3407 -3.20449e-13)
(79.6619 31.2955 -1.67887e-13)
(65.681 15.5151 7.19395e-14)
(55.5979 9.79451 -3.92083e-14)
(36.8928 9.82378 6.59261e-15)
(28.1804 7.39672 -8.4012e-15)
(29.3168 3.60386 1.00197e-13)
(28.4426 2.03497 3.14048e-14)
(26.2211 1.33874 1.35252e-14)
(24.8353 0.961268 -1.57295e-14)
(23.4497 0.863496 -8.88279e-15)
(21.2203 0.838716 -2.67915e-15)
(18.7412 0.60586 2.2968e-15)
(16.5953 0.194217 -7.1273e-16)
(15.583 -0.292163 1.35623e-15)
(15.4543 -0.698285 -5.13604e-15)
(15.0224 -0.893819 -4.00172e-15)
(17.4343 -1.02124 1.3584e-14)
(16.8989 -1.29148 1.00625e-14)
(14.1435 -1.2791 2.02486e-15)
(13.7662 -1.37733 -1.24087e-14)
(13.5085 -1.47721 2.41887e-15)
(13.3118 -1.57876 -2.29678e-15)
(13.1554 -1.67269 -7.09542e-15)
(13.0319 -1.76823 8.44803e-16)
(12.9008 -1.85087 -8.11534e-15)
(12.7342 -1.92264 -3.85108e-15)
(12.4346 -1.96021 -2.81299e-15)
(12.0121 -1.95627 2.87079e-15)
(11.2516 -1.78207 -2.82735e-16)
(8.67517 -1.22339 -2.13617e-15)
(-6.10747 -0.563382 6.62925e-16)
(-12.523 -0.768692 -6.34968e-18)
(-8.5098 -2.09874 -3.46758e-16)
(6.03527 -1.02019 6.2333e-16)
(0.797766 5.815 1.22926e-14)
(3.67056 8.98286 -6.93452e-14)
(6.79433 6.24275 -9.18387e-14)
(4.14076 -11.9793 1.6394e-13)
(8.50984 -21.7777 1.27324e-14)
(29.2948 -7.56774 -1.34205e-13)
(64.0542 12.5924 8.10797e-14)
(86.1783 23.9471 1.84189e-13)
(98.5472 28.5941 -3.0486e-14)
(99.8897 27.3861 -1.92485e-14)
(91.979 23.7767 1.55339e-14)
(85.9886 21.1906 -4.37355e-14)
(79.408 16.0616 -7.57073e-14)
(67.8961 10.5785 1.88672e-14)
(53.528 6.48617 5.31362e-15)
(40.8125 3.50236 1.56478e-14)
(30.7294 1.51403 2.77293e-15)
(22.997 0.362296 6.28959e-15)
(19.1985 -0.270908 9.56141e-15)
(17.2025 -0.858582 -1.58005e-16)
(16.9071 -1.32563 1.45818e-16)
(17.9306 -1.70359 4.83598e-15)
(18.2988 -1.71703 1.58773e-15)
(19.629 -1.70534 -6.45383e-15)
(23.2941 -1.64559 -1.06997e-14)
(18.1202 -1.66426 -6.08964e-15)
(17.1804 -1.71423 7.81897e-15)
(16.6305 -1.80629 -3.02166e-15)
(16.3253 -1.93049 3.56201e-15)
(16.1414 -2.05955 -3.52222e-17)
(16.0132 -2.19484 -1.4999e-15)
(15.8659 -2.31107 7.24739e-15)
(15.6657 -2.40726 -4.65455e-15)
(15.3133 -2.45434 3.73283e-15)
(14.8369 -2.44951 7.96893e-16)
(14.0914 -2.31092 -4.90503e-15)
(12.937 -2.01115 5.52244e-16)
(11.1511 -1.9039 6.56618e-16)
(10.2451 -2.03156 5.94762e-16)
(9.70914 -2.23047 -3.32609e-16)
(6.94699 -0.0484923 -2.28391e-16)
(1.83973 5.02566 -2.25427e-15)
(3.41751 5.07793 3.29067e-14)
(8.88068 3.5099 2.75761e-14)
(12.9487 -4.28524 -7.97152e-14)
(4.94596 -18.9249 -3.08736e-14)
(-7.4703 -31.1028 1.287e-13)
(-10.3518 -33.3266 7.57029e-14)
(-2.43518 -25.3288 -3.09359e-14)
(9.39844 -15.5796 1.42163e-14)
(18.6475 -9.35702 -2.94361e-14)
(19.9377 -2.21492 -5.66882e-14)
(19.6492 5.74857 2.95644e-14)
(26.3975 8.79429 3.23848e-14)
(32.9379 7.43675 9.39035e-15)
(37.2488 6.39173 3.19037e-14)
(41.2883 5.71586 -8.28379e-15)
(44.4551 4.82037 -1.90179e-14)
(45.3149 4.02358 -9.97812e-15)
(42.6821 3.16534 1.11153e-15)
(38.4984 2.14271 -4.47368e-15)
(33.2279 0.840136 6.59842e-16)
(29.0625 -0.535414 -3.10437e-15)
(24.9091 -1.34155 -3.81594e-15)
(23.7388 -1.7366 -6.0493e-15)
(23.0919 -1.94796 -5.41757e-15)
(20.5306 -2.11308 -6.3126e-15)
(19.5475 -2.22016 -1.03147e-14)
(19.0634 -2.33566 -4.91541e-16)
(18.8359 -2.45473 -1.9551e-15)
(18.6921 -2.56006 8.81279e-15)
(18.5636 -2.66036 4.47278e-15)
(18.3929 -2.7431 3.24506e-15)
(18.1625 -2.8103 1.09591e-14)
(17.7783 -2.8376 -3.90643e-16)
(17.3009 -2.82258 -1.38422e-15)
(16.6413 -2.7073 3.89589e-16)
(15.8174 -2.47395 6.41124e-18)
(14.626 -2.21777 2.55452e-16)
(13.7434 -2.03009 2.68411e-17)
(12.6291 -2.00535 -2.92803e-16)
(9.58569 -0.338233 -4.97707e-16)
(2.33767 3.7279 1.81544e-15)
(3.45305 3.31435 -1.01934e-14)
(4.86906 2.5685 1.89648e-14)
(8.39524 0.466645 1.22124e-13)
(9.59404 -4.66996 2.00293e-14)
(3.95411 -11.3015 -7.10403e-14)
(-6.38405 -16.8628 5.00935e-14)
(-15.4984 -19.3514 -1.53353e-14)
(-20.6759 -18.5403 7.38072e-15)
(-23.1564 -15.1425 7.26184e-14)
(-24.0782 -7.79143 8.81328e-14)
(-21.0962 0.752746 2.06312e-14)
(-15.0528 3.68099 3.78442e-16)
(-10.529 1.81117 -1.80329e-14)
(-9.02762 0.0590305 -2.3152e-14)
(-7.65395 -0.82297 -1.86386e-15)
(-4.86121 -1.53014 -1.5595e-14)
(-1.18132 -1.65943 1.1742e-14)
(3.76053 -1.14292 -1.87748e-15)
(7.99131 -0.283134 -6.25931e-16)
(13.3888 -0.0131786 3.32767e-16)
(19.5098 -0.261734 4.37541e-15)
(23.5818 -0.629534 5.24273e-15)
(26.4224 -0.978562 -8.5806e-15)
(29.1354 -1.35905 -8.74921e-16)
(27.6438 -1.75271 1.47499e-14)
(25.7307 -1.97189 6.2592e-15)
(24.5391 -2.23893 5.48364e-15)
(23.3284 -2.48111 3.44703e-15)
(22.2471 -2.69752 -7.63022e-15)
(21.3863 -2.89512 -6.05474e-15)
(20.7432 -3.06674 4.34643e-16)
(20.2725 -3.20952 -4.69895e-15)
(19.8166 -3.29662 6.96219e-16)
(19.3993 -3.31735 -3.64604e-17)
(18.8936 -3.21723 1.34395e-15)
(18.2909 -2.97631 1.31592e-15)
(17.3761 -2.62978 -8.14083e-16)
(16.5354 -2.2687 -3.12183e-16)
(15.2734 -1.98355 4.00227e-16)
(12.4958 -0.583487 -4.30978e-16)
(2.16803 2.73791 1.12937e-16)
(2.93096 2.28304 3.51022e-15)
(3.84025 1.51011 -4.98939e-15)
(5.33103 0.109333 -5.08395e-14)
(6.87487 -2.59338 1.08883e-14)
(6.48059 -5.69976 4.13732e-14)
(3.31365 -8.1812 -4.47232e-14)
(-1.57244 -9.83509 1.16843e-14)
(-6.63947 -10.2651 -3.66529e-14)
(-11.1246 -9.59451 -7.51908e-15)
(-14.5021 -6.85523 -5.75224e-14)
(-14.7437 -2.18381 -2.13441e-14)
(-11.462 0.771491 1.5158e-14)
(-8.01459 0.713204 -8.67164e-15)
(-6.8995 0.0697377 -3.1464e-15)
(-6.92652 -0.152376 3.97245e-14)
(-6.89766 -0.505934 6.69854e-15)
(-6.93676 -0.735796 1.54606e-15)
(-7.53419 -0.873096 -7.20648e-15)
(-7.98799 -0.661169 1.19022e-15)
(-7.30136 -0.344014 1.56828e-15)
(-5.83951 -0.486689 5.76511e-16)
(-3.71652 -0.71672 -1.74954e-15)
(-0.791613 -0.949796 6.60517e-16)
(2.65064 -1.28488 -5.77881e-15)
(5.98081 -1.4153 -5.88564e-15)
(9.53106 -1.57993 1.31716e-15)
(13.0079 -1.78897 -2.9795e-15)
(16.1625 -2.05763 -1.20735e-15)
(18.8443 -2.34748 -1.24953e-17)
(20.9577 -2.64853 3.18176e-15)
(22.4915 -2.93662 -1.89524e-15)
(23.4494 -3.19138 8.19591e-16)
(23.7923 -3.37985 -2.34348e-15)
(23.7231 -3.48342 -2.95062e-15)
(23.2378 -3.45643 1.38116e-15)
(22.4547 -3.27616 -8.96865e-16)
(21.1963 -2.93752 -1.05645e-15)
(19.9599 -2.54897 5.96409e-17)
(18.3641 -2.06824 -4.09408e-17)
(15.8298 -1.16933 4.79606e-16)
(1.83389 1.94196 -9.32007e-16)
(2.41885 1.56611 2.00468e-15)
(2.94804 0.936962 -2.28838e-16)
(3.68764 0.167847 -4.4827e-15)
(4.46628 -1.47403 -3.89398e-16)
(4.58401 -3.84258 1.2862e-14)
(3.51091 -5.97327 2.10114e-15)
(1.52037 -7.05234 -9.26648e-15)
(-0.799017 -7.07045 6.34878e-14)
(-3.17226 -6.42765 -7.44874e-15)
(-5.50152 -4.69886 -1.09359e-14)
(-6.60701 -1.46253 8.87306e-15)
(-5.36296 1.34987 -1.1238e-14)
(-3.0763 1.95028 2.51681e-14)
(-1.89632 1.37652 -1.79683e-14)
(-1.74307 0.918104 -2.34892e-14)
(-1.61357 0.453777 -1.54841e-15)
(-1.53311 -0.156276 -6.30282e-15)
(-2.32184 -0.466302 1.25332e-15)
(-2.50825 -0.572228 -8.35911e-15)
(-3.33778 -0.424839 4.1195e-15)
(-4.35318 -0.425503 -4.22909e-19)
(-4.80071 -0.555168 -3.34611e-15)
(-5.08303 -0.60888 -2.08612e-15)
(-5.42284 -0.758438 -1.9336e-15)
(-5.58123 -0.89364 -8.02858e-16)
(-5.36135 -0.963243 2.48312e-15)
(-4.71478 -1.08574 -3.06797e-15)
(-3.59778 -1.20853 -3.09619e-15)
(-1.81003 -1.45909 2.26992e-15)
(0.602821 -1.81367 3.48312e-15)
(3.35816 -2.07109 3.48443e-15)
(6.62487 -2.39774 1.7088e-15)
(10.158 -2.69536 -4.24994e-15)
(13.7929 -2.94462 -4.0751e-15)
(17.2289 -3.08108 -7.35393e-16)
(20.2185 -3.03741 2.44042e-15)
(22.1798 -2.75234 1.30164e-15)
(23.3692 -2.41011 4.20014e-16)
(23.1615 -1.67089 -2.03321e-16)
(22.1519 -1.39675 5.44886e-16)
(1.45677 1.35339 -1.95799e-16)
(1.88252 1.07564 -1.80625e-15)
(2.2333 0.598735 1.81422e-15)
(2.66062 0.0496311 5.29737e-15)
(3.09668 -0.83931 2.19232e-14)
(3.19668 -2.18413 1.55534e-14)
(2.60192 -3.65917 -3.94877e-14)
(1.32775 -4.80455 -4.87795e-14)
(-0.257035 -5.19035 -2.91354e-14)
(-1.82749 -4.91628 3.06742e-14)
(-3.3277 -3.94281 5.43089e-15)
(-4.26984 -2.03543 -5.74918e-14)
(-3.8518 -0.0142883 3.55899e-14)
(-2.34305 0.817324 2.59895e-14)
(-1.12576 0.610372 -4.34639e-14)
(-0.678693 0.310462 8.74239e-15)
(-0.419417 0.0770884 3.52803e-14)
(-0.105452 -0.307486 1.9436e-15)
(-0.0064773 -0.666535 -6.02429e-15)
(-0.204749 -0.723491 -8.82757e-15)
(-0.480046 -0.548229 1.64441e-16)
(-0.730328 -0.435762 1.10166e-14)
(-0.828415 -0.484174 -6.40488e-15)
(-0.999815 -0.591537 -1.4222e-15)
(-1.53777 -0.548426 -1.01409e-15)
(-1.87143 -0.673873 -5.25396e-16)
(-2.31658 -0.803123 1.10524e-15)
(-2.87381 -0.953045 -2.76089e-15)
(-3.4675 -1.04055 1.85093e-15)
(-4.07645 -1.11629 4.24055e-15)
(-4.73842 -1.28197 -2.6665e-15)
(-5.19556 -1.45253 -6.17208e-15)
(-5.29561 -1.61607 -2.72321e-16)
(-4.92415 -1.7973 2.71234e-15)
(-3.89925 -1.94717 2.12561e-15)
(-1.96463 -2.11159 -1.65573e-17)
(0.868592 -2.23183 2.44251e-16)
(4.51672 -2.14821 1.55129e-16)
(9.00284 -1.94908 -1.62942e-17)
(12.8806 -1.19029 -9.7318e-18)
(18.5281 -0.87081 -1.2554e-16)
(1.11057 0.926415 5.74168e-16)
(1.41701 0.728278 -2.65448e-16)
(1.65543 0.383505 1.68877e-15)
(1.91899 0.00302328 1.49355e-15)
(2.16908 -0.548378 -2.60062e-15)
(2.27362 -1.33233 -9.52472e-16)
(2.02962 -2.31174 1.46849e-14)
(1.32612 -3.21019 1.80967e-14)
(0.261521 -3.81059 -1.40743e-14)
(-0.941243 -3.91454 2.08697e-14)
(-2.11418 -3.50478 5.22008e-14)
(-2.98415 -2.42238 -1.14207e-14)
(-3.08784 -0.938512 -3.70362e-14)
(-2.31738 0.118378 1.27933e-15)
(-1.37929 0.3948 7.22304e-15)
(-0.858828 0.319892 -9.49321e-15)
(-0.595823 0.204476 -1.60297e-14)
(-0.320263 -0.0213844 -2.45649e-15)
(-0.125771 -0.323057 1.53423e-14)
(-0.135247 -0.48569 -5.74498e-15)
(-0.241367 -0.44265 6.79924e-16)
(-0.321678 -0.380812 1.50757e-17)
(-0.316467 -0.377736 5.03444e-16)
(-0.279748 -0.455381 1.61176e-16)
(-0.260872 -0.568244 -3.01832e-15)
(-0.281961 -0.674705 -3.02731e-15)
(-0.345178 -0.775341 4.189e-15)
(-0.465671 -0.87563 -8.18452e-16)
(-0.635158 -1.01407 -1.99377e-15)
(-0.948412 -1.08223 -2.93927e-15)
(-1.42428 -1.0968 7.70678e-16)
(-1.95867 -1.23397 2.11746e-15)
(-2.67949 -1.34796 -9.90181e-16)
(-3.56395 -1.46991 -5.48531e-16)
(-4.52395 -1.56748 4.37486e-18)
(-5.4754 -1.64795 1.83147e-15)
(-6.20363 -1.72459 -1.36064e-16)
(-6.44174 -1.6616 -6.18211e-16)
(-5.63322 -1.49019 -1.32054e-15)
(-4.58533 -1.14255 2.68741e-16)
(0.755432 -0.390241 -1.6528e-16)
(0.820026 0.626128 4.53667e-18)
(1.03334 0.488715 -5.44749e-16)
(1.19338 0.248041 -1.85248e-16)
(1.36282 -0.0156225 -4.99254e-15)
(1.51408 -0.368475 -4.27782e-15)
(1.58918 -0.842597 1.877e-15)
(1.49274 -1.4234 1.14302e-14)
(1.13338 -2.02897 -2.23817e-14)
(0.515758 -2.48748 -1.76683e-16)
(-0.271292 -2.72791 3.38654e-14)
(-1.10366 -2.60326 -1.75023e-14)
(-1.80728 -2.04089 3.30005e-14)
(-2.13392 -1.13902 -1.29598e-15)
(-1.905 -0.319926 -1.4451e-14)
(-1.36524 0.0537653 8.80586e-15)
(-0.92866 0.0835379 -2.52233e-14)
(-0.677368 0.0294155 1.25862e-14)
(-0.460637 -0.0672754 4.58151e-15)
(-0.267505 -0.239783 -1.09136e-15)
(-0.201917 -0.397255 1.37335e-15)
(-0.261455 -0.438143 -4.88864e-15)
(-0.364913 -0.437153 -2.02103e-15)
(-0.414757 -0.431027 7.25617e-15)
(-0.409367 -0.474336 -2.0353e-15)
(-0.388665 -0.554135 -2.70394e-16)
(-0.37832 -0.648168 1.18292e-15)
(-0.383184 -0.74345 -5.99029e-16)
(-0.399369 -0.839934 -1.03603e-15)
(-0.431598 -0.937349 9.664e-16)
(-0.488421 -1.03457 -1.15965e-15)
(-0.579582 -1.1299 1.38948e-15)
(-0.722355 -1.21358 -1.21351e-16)
(-0.934157 -1.2823 2.6625e-15)
(-1.23612 -1.32913 3.91885e-16)
(-1.67168 -1.38767 5.02545e-16)
(-2.28334 -1.3671 1.40282e-16)
(-3.07534 -1.27777 -2.70258e-16)
(-4.06058 -1.16226 1.38566e-15)
(-5.03966 -1.01811 3.65163e-16)
(-6.29201 -0.947146 -1.43265e-16)
(-6.23665 -0.213114 7.50692e-17)
(0.588888 0.420987 -4.90974e-16)
(0.734104 0.327906 -4.64343e-16)
(0.839196 0.164043 -1.47109e-16)
(0.949073 -0.0135144 -5.2829e-15)
(1.04154 -0.24063 4.3191e-15)
(1.09092 -0.529392 6.61243e-15)
(1.05366 -0.881514 -1.2608e-14)
(0.879485 -1.26084 6.09359e-15)
(0.544844 -1.59593 3.59336e-16)
(0.0823137 -1.79749 -3.58073e-14)
(-0.447067 -1.83022 -1.94813e-14)
(-0.946526 -1.61046 -6.07203e-15)
(-1.28868 -1.16061 4.81503e-15)
(-1.33218 -0.635881 -1.45793e-14)
(-1.10428 -0.259624 -7.33524e-15)
(-0.808212 -0.0917494 3.06792e-14)
(-0.583888 -0.031624 -1.11761e-14)
(-0.4076 -0.0249333 2.63192e-15)
(-0.249333 -0.0949404 2.50799e-14)
(-0.158311 -0.217771 -1.10107e-14)
(-0.167292 -0.311959 -4.60292e-16)
(-0.24761 -0.376765 1.54373e-15)
(-0.326128 -0.401247 -2.80156e-15)
(-0.365793 -0.437071 5.70765e-15)
(-0.382553 -0.495632 -2.92545e-15)
(-0.400066 -0.571718 1.76933e-15)
(-0.429648 -0.655967 4.52724e-15)
(-0.472117 -0.746383 -1.20528e-15)
(-0.529793 -0.841713 -3.78808e-17)
(-0.604966 -0.939023 -4.45993e-16)
(-0.700666 -1.03317 -1.79434e-15)
(-0.816456 -1.11968 -1.19155e-15)
(-0.951279 -1.18858 -1.61401e-15)
(-1.09843 -1.22651 6.08246e-16)
(-1.2669 -1.23368 1.59835e-15)
(-1.45994 -1.2004 -1.43499e-15)
(-1.68582 -1.11015 -9.28004e-16)
(-1.94703 -0.966167 -9.06509e-16)
(-2.34595 -0.740173 -5.61631e-17)
(-2.76 -0.53761 -4.46989e-16)
(-3.58515 -0.144929 1.33037e-16)
(0.413195 0.284107 8.56888e-17)
(0.510435 0.222457 1.91209e-16)
(0.578422 0.113371 6.25905e-17)
(0.649387 -0.00349936 -1.4957e-16)
(0.707615 -0.14806 1.02542e-16)
(0.739358 -0.324488 -5.5979e-16)
(0.726136 -0.533634 2.83893e-15)
(0.643306 -0.76304 3.70976e-15)
(0.471849 -0.979002 2.63706e-14)
(0.215246 -1.13777 6.43802e-15)
(-0.101427 -1.20547 -5.34141e-14)
(-0.426166 -1.15085 3.29787e-14)
(-0.694379 -0.95308 3.70176e-14)
(-0.82273 -0.652197 1.05301e-14)
(-0.778023 -0.360326 -1.42968e-14)
(-0.62769 -0.167192 -7.80402e-15)
(-0.470247 -0.0734732 5.0282e-15)
(-0.339082 -0.0465766 -1.9518e-14)
(-0.223839 -0.0805563 8.85212e-15)
(-0.138262 -0.167002 9.14892e-16)
(-0.109842 -0.26178 -1.08552e-14)
(-0.144142 -0.354055 6.12726e-16)
(-0.20676 -0.401847 6.03693e-15)
(-0.253607 -0.439425 3.48674e-15)
(-0.283596 -0.484725 -9.77682e-15)
(-0.309861 -0.543651 1.33636e-15)
(-0.344815 -0.61293 4.34394e-15)
(-0.393411 -0.690139 -4.03153e-15)
(-0.457896 -0.772924 -1.63967e-15)
(-0.540538 -0.857264 5.47591e-15)
(-0.643213 -0.938453 -1.95149e-15)
(-0.766553 -1.00989 -5.61682e-16)
(-0.908752 -1.06568 1.10508e-15)
(-1.06101 -1.09432 -4.05226e-16)
(-1.22577 -1.09905 -6.62181e-16)
(-1.38944 -1.07025 -2.56532e-16)
(-1.54217 -1.00345 4.92652e-17)
(-1.64021 -0.883406 5.48393e-16)
(-1.75142 -0.724471 -8.42159e-17)
(-1.76518 -0.533234 4.18564e-16)
(-1.91575 -0.323453 -1.31008e-16)
(0.284881 0.193738 -4.72988e-17)
(0.349358 0.154065 -2.94646e-17)
(0.393213 0.0826495 2.38206e-16)
(0.439277 0.00724589 7.91355e-16)
(0.476926 -0.083777 -5.26796e-16)
(0.498467 -0.191937 2.74938e-16)
(0.495229 -0.317529 -1.38078e-14)
(0.456598 -0.455529 -1.26586e-14)
(0.371796 -0.592417 5.01939e-15)
(0.23699 -0.708979 2.06347e-15)
(0.0602934 -0.778621 4.46686e-15)
(-0.133817 -0.774663 -5.10901e-15)
(-0.313404 -0.699632 5.16958e-16)
(-0.437858 -0.557736 -1.49906e-14)
(-0.474809 -0.38902 -9.14136e-15)
(-0.431952 -0.249177 8.9244e-15)
(-0.351716 -0.164567 -1.06818e-14)
(-0.268577 -0.128085 2.20123e-14)
(-0.190715 -0.130924 -1.60248e-15)
(-0.123807 -0.169182 -8.97349e-16)
(-0.083388 -0.228508 5.41401e-16)
(-0.0843328 -0.307803 7.73377e-16)
(-0.12077 -0.362508 -4.58471e-16)
(-0.161026 -0.407422 -1.59032e-15)
(-0.1954 -0.452931 1.9044e-15)
(-0.239259 -0.520611 8.70344e-15)
(-0.27235 -0.575825 5.15888e-16)
(-0.316511 -0.63724 -2.59707e-15)
(-0.375892 -0.706481 5.78174e-15)
(-0.448098 -0.774374 -1.95462e-15)
(-0.534123 -0.83628 1.73088e-15)
(-0.634786 -0.887762 7.54766e-16)
(-0.749652 -0.924245 -4.24194e-15)
(-0.872899 -0.937911 1.50738e-15)
(-1.00855 -0.932683 -3.68637e-16)
(-1.14825 -0.903922 -3.78575e-16)
(-1.28592 -0.851206 -7.23053e-18)
(-1.38824 -0.763719 -3.02063e-16)
(-1.49087 -0.664038 1.97056e-17)
(-1.53857 -0.543086 -1.74372e-17)
(-1.56527 -0.427119 1.25839e-16)
(0.193484 0.133763 1.45743e-16)
(0.236221 0.10896 3.04138e-16)
(0.264907 0.0628336 -8.93827e-16)
(0.295404 0.0148066 3.18202e-17)
(0.320717 -0.0420561 2.08286e-15)
(0.336431 -0.108392 1.37716e-15)
(0.338248 -0.184206 5.43682e-15)
(0.321525 -0.266905 6.54135e-15)
(0.281272 -0.350863 -4.81175e-15)
(0.214408 -0.427462 -2.14202e-14)
(0.121837 -0.484477 1.61671e-14)
(0.012106 -0.505445 3.55879e-15)
(-0.0983284 -0.486807 -3.68006e-14)
(-0.189939 -0.433264 1.71458e-14)
(-0.244886 -0.356257 2.83521e-14)
(-0.254892 -0.276778 -2.8663e-15)
(-0.230522 -0.215311 2.67622e-15)
(-0.190036 -0.179079 -2.97876e-15)
(-0.145292 -0.167478 1.16522e-15)
(-0.103016 -0.180075 1.50252e-14)
(-0.071147 -0.214395 -6.12766e-15)
(-0.0629634 -0.279124 -1.35476e-14)
(-0.082784 -0.335613 -6.81477e-15)
(-0.113588 -0.387768 6.75295e-15)
(-0.148471 -0.438009 7.97241e-15)
(-0.184044 -0.488144 -1.46625e-15)
(-0.222285 -0.540112 -9.98466e-17)
(-0.266502 -0.591721 1.74556e-16)
(-0.317082 -0.641363 1.04052e-16)
(-0.375221 -0.687102 -3.44888e-16)
(-0.441712 -0.726274 -1.14511e-15)
(-0.517206 -0.756824 1.0868e-15)
(-0.601634 -0.775917 1.53505e-15)
(-0.690643 -0.778337 -9.99535e-16)
(-0.787877 -0.767984 -4.24229e-16)
(-0.887938 -0.74252 -1.99009e-16)
(-0.987692 -0.702284 1.69173e-15)
(-1.06472 -0.639109 -8.66483e-16)
(-1.1477 -0.571802 6.38468e-18)
(-1.20047 -0.495571 4.731e-16)
(-1.25118 -0.422634 -7.66965e-17)
(0.130052 0.0934742 -1.53113e-16)
(0.158206 0.0782136 4.2301e-16)
(0.17723 0.0486221 1.87049e-16)
(0.197839 0.0182032 -1.58326e-15)
(0.215485 -0.0172943 2.16705e-16)
(0.227547 -0.0582911 -9.87161e-16)
(0.231809 -0.104892 2.88968e-15)
(0.226196 -0.155774 4.43535e-15)
(0.208486 -0.20843 2.79456e-15)
(0.176925 -0.259426 4.97679e-15)
(0.130989 -0.303295 -2.0077e-14)
(0.0728811 -0.331701 1.76497e-14)
(0.00911951 -0.340724 2.19305e-14)
(-0.0498207 -0.328764 -1.61506e-14)
(-0.0943269 -0.300873 -8.25734e-15)
(-0.119108 -0.265997 -1.39855e-14)
(-0.123384 -0.233012 9.94366e-16)
(-0.113138 -0.20985 2.63139e-16)
(-0.0955468 -0.200043 3.43274e-15)
(-0.0761744 -0.204473 -2.58713e-15)
(-0.059722 -0.223802 -1.01908e-15)
(-0.0559996 -0.272783 4.16823e-15)
(-0.0679434 -0.3179 1.48635e-15)
(-0.0896569 -0.361723 -7.89509e-15)
(-0.116916 -0.402071 1.52345e-16)
(-0.147052 -0.439402 4.91015e-15)
(-0.179226 -0.475181 -1.43451e-15)
(-0.214648 -0.507794 -7.9083e-15)
(-0.255065 -0.537856 5.17668e-15)
(-0.300575 -0.564751 -2.07817e-15)
(-0.351442 -0.587537 3.08773e-15)
(-0.407928 -0.604939 -1.32364e-15)
(-0.470208 -0.615615 -2.31414e-15)
(-0.534918 -0.615574 1.69268e-15)
(-0.60487 -0.608328 2.26864e-15)
(-0.67631 -0.592195 -4.47482e-16)
(-0.747205 -0.567751 -8.70201e-16)
(-0.801593 -0.527939 4.97973e-16)
(-0.861695 -0.487745 -4.25719e-16)
(-0.902172 -0.44212 -6.21178e-17)
(-0.948269 -0.401168 -1.44446e-16)
(0.0866886 0.0662136 -6.047e-17)
(0.105312 0.0569345 1.69739e-17)
(0.118089 0.0378974 3.46957e-16)
(0.13216 0.0185498 1.29792e-15)
(0.144584 -0.0037373 -6.56741e-17)
(0.153801 -0.0292973 7.85286e-16)
(0.158657 -0.0583329 8.41667e-17)
(0.158223 -0.0901587 -5.54398e-15)
(0.151488 -0.123575 -1.78189e-15)
(0.137583 -0.157178 2.89006e-15)
(0.11588 -0.188567 -1.13708e-14)
(0.0866137 -0.213577 -7.83047e-15)
(0.0522274 -0.230328 1.73603e-14)
(0.0166282 -0.236602 -4.28341e-15)
(-0.0146904 -0.233256 1.91945e-14)
(-0.0375087 -0.223709 7.45651e-15)
(-0.0510704 -0.213123 -1.32332e-14)
(-0.0558306 -0.204148 7.32446e-15)
(-0.054301 -0.199839 -1.30517e-14)
(-0.0497067 -0.20159 2.07942e-15)
(-0.0446164 -0.210671 5.45889e-17)
(-0.0461079 -0.243063 1.81082e-15)
(-0.054897 -0.272757 -6.43813e-15)
(-0.0690073 -0.302277 -3.01263e-15)
(-0.088286 -0.329962 1.05061e-14)
(-0.11101 -0.355911 -9.24587e-16)
(-0.139346 -0.387569 -2.92401e-15)
(-0.165774 -0.4052 -2.096e-15)
(-0.196141 -0.422595 6.7567e-15)
(-0.232239 -0.441455 8.66884e-16)
(-0.2721 -0.458038 -3.85916e-15)
(-0.315389 -0.47111 4.52272e-16)
(-0.362089 -0.480507 3.32938e-16)
(-0.409843 -0.482765 -4.10354e-16)
(-0.460844 -0.481275 -1.18206e-15)
(-0.512544 -0.474348 7.47917e-16)
(-0.563884 -0.462964 8.56448e-16)
(-0.60345 -0.440759 -2.46825e-16)
(-0.648038 -0.420176 2.14524e-16)
(-0.680031 -0.395171 2.14424e-16)
(-0.715993 -0.374031 -2.14784e-16)
(0.0564652 0.0466273 1.14129e-16)
(0.0688801 0.0414644 -4.74592e-16)
(0.0777069 0.0294452 -1.17905e-16)
(0.0875283 0.0172104 -1.20469e-16)
(0.0963781 0.00321731 2.92589e-15)
(0.10334 -0.0127982 -1.12614e-15)
(0.107834 -0.0310572 -9.2937e-16)
(0.109466 -0.051193 5.6578e-15)
(0.107764 -0.0726153 1.07814e-15)
(0.102287 -0.0947567 -8.6931e-15)
(0.0925819 -0.116568 -2.6482e-15)
(0.078375 -0.136009 1.40957e-14)
(0.0606179 -0.15215 -9.63898e-15)
(0.0407295 -0.163638 -3.356e-15)
(0.0208401 -0.1698 1.21398e-14)
(0.00347661 -0.171534 -3.75457e-15)
(-0.00951801 -0.170454 9.66153e-15)
(-0.0184643 -0.16975 -5.00773e-15)
(-0.0236611 -0.169605 -2.30565e-14)
(-0.0263867 -0.171227 2.58436e-14)
(-0.0277716 -0.175643 1.69275e-15)
(-0.0322698 -0.19694 -1.47138e-14)
(-0.0394056 -0.21633 2.73621e-15)
(-0.0499013 -0.236578 -2.26999e-16)
(-0.0640112 -0.256928 5.29042e-15)
(-0.081531 -0.276828 1.36682e-15)
(-0.101365 -0.295568 -1.96745e-14)
(-0.123788 -0.313895 -5.43744e-15)
(-0.149658 -0.331037 7.06262e-15)
(-0.178135 -0.346874 5.21471e-16)
(-0.209106 -0.360812 9.73915e-16)
(-0.242268 -0.372446 -2.60327e-15)
(-0.277238 -0.381398 4.31445e-16)
(-0.312266 -0.38562 -1.49349e-17)
(-0.349066 -0.387477 -1.48195e-18)
(-0.386042 -0.386197 1.0191e-16)
(-0.42265 -0.382156 1.35475e-16)
(-0.451067 -0.370473 8.27495e-19)
(-0.483606 -0.360958 -6.65877e-17)
(-0.508385 -0.348049 -1.75687e-16)
(-0.535718 -0.337789 1.18952e-16)
(0.0400126 0.0359437 2.10319e-16)
(0.0482702 0.0323387 -4.63955e-16)
(0.0544623 0.0241318 5.54676e-16)
(0.0613413 0.0157485 -1.06684e-15)
(0.0675491 0.00637069 6.93326e-16)
(0.0725385 -0.00424051 -3.49195e-15)
(0.0760401 -0.0162777 -7.71772e-15)
(0.0779241 -0.0295267 6.77595e-15)
(0.0779779 -0.0436897 1.3829e-14)
(0.0759741 -0.0585315 -5.86633e-15)
(0.0716383 -0.0735726 -7.34633e-15)
(0.0646659 -0.0877679 9.93754e-16)
(0.0554633 -0.100678 3.22281e-15)
(0.0445465 -0.11153 -1.29038e-15)
(0.0327791 -0.119836 -1.03628e-16)
(0.0211696 -0.125487 -6.99494e-16)
(0.0108183 -0.128973 1.0626e-14)
(0.00251561 -0.131421 -2.31084e-15)
(-0.00416974 -0.134097 -1.65432e-14)
(-0.00966745 -0.137338 1.17216e-14)
(-0.0140803 -0.141431 5.83314e-15)
(-0.0201905 -0.157799 4.06714e-15)
(-0.0275602 -0.172599 -1.06978e-14)
(-0.0367317 -0.188358 1.09152e-15)
(-0.0485328 -0.204717 1.63726e-16)
(-0.062837 -0.22102 2.47084e-17)
(-0.0789904 -0.236805 -1.6367e-17)
(-0.0973508 -0.252439 -2.48005e-16)
(-0.117817 -0.266273 1.62265e-17)
(-0.140072 -0.279137 1.20732e-16)
(-0.164056 -0.290351 -2.52788e-16)
(-0.189153 -0.299848 1.20693e-15)
(-0.215066 -0.307275 6.88766e-16)
(-0.240522 -0.311408 -2.00016e-15)
(-0.266905 -0.314057 4.35614e-16)
(-0.293191 -0.31491 -5.13713e-16)
(-0.31918 -0.314149 -3.0926e-16)
(-0.339413 -0.307964 7.59157e-16)
(-0.36292 -0.304029 -1.40252e-16)
(-0.381721 -0.297752 -4.75541e-18)
(-0.401922 -0.29337 -1.19249e-17)
(0.0294913 0.0294211 -9.86179e-18)
(0.0351728 0.0267366 2.28044e-16)
(0.0397507 0.0208451 4.48721e-16)
(0.0447876 0.0147829 -2.02724e-15)
(0.0493527 0.00814758 -1.83583e-16)
(0.0530519 0.000736425 -1.93832e-15)
(0.0557926 -0.00762358 1.80564e-15)
(0.0575471 -0.0167942 -3.80255e-16)
(0.0582283 -0.0266342 -5.6197e-15)
(0.0577046 -0.0370498 2.94797e-15)
(0.0558083 -0.0478194 1.33616e-14)
(0.0522921 -0.0583826 4.44934e-16)
(0.0473498 -0.0685354 -1.10508e-14)
(0.0411533 -0.0778604 2.29342e-15)
(0.0340691 -0.0860303 -7.52427e-15)
(0.0265393 -0.0928788 -1.59081e-14)
(0.0190574 -0.0984451 7.93615e-15)
(0.0120094 -0.102952 1.20416e-14)
(0.0057535 -0.107086 4.83915e-15)
(-7.82328e-05 -0.111114 -2.03555e-15)
(-0.00552214 -0.115744 -1.07406e-14)
(-0.0121082 -0.12958 9.18411e-15)
(-0.0190309 -0.141474 -1.84769e-15)
(-0.0274744 -0.154047 1.74107e-16)
(-0.0375531 -0.167004 4.15454e-16)
(-0.0493344 -0.179766 -2.82711e-15)
(-0.0625423 -0.192226 -2.17709e-15)
(-0.0778932 -0.207176 6.99734e-15)
(-0.0932548 -0.215995 -1.14133e-15)
(-0.109927 -0.224382 -5.33951e-15)
(-0.127994 -0.232744 4.87743e-15)
(-0.146855 -0.239865 -2.68979e-15)
(-0.166038 -0.245447 -7.41113e-18)
(-0.18464 -0.24882 3.13082e-15)
(-0.203765 -0.251297 -3.77577e-15)
(-0.222789 -0.252854 2.1558e-15)
(-0.241636 -0.253544 1.23581e-15)
(-0.25653 -0.250466 -1.69794e-15)
(-0.273908 -0.249443 7.05903e-16)
(-0.288591 -0.246952 -2.00304e-16)
(-0.303863 -0.245858 2.52903e-16)
(0.0221322 0.0247708 -1.00339e-16)
(0.0261613 0.0227333 4.62093e-16)
(0.0296589 0.0183663 -4.33151e-18)
(0.0335147 0.0138393 -8.45727e-16)
(0.0370034 0.0089728 2.46047e-16)
(0.0398699 0.00360197 -4.83808e-16)
(0.0420617 -0.00242459 -3.8633e-16)
(0.0436248 -0.00901974 3.33255e-15)
(0.0445014 -0.0161174 -1.45644e-15)
(0.0446272 -0.0236945 -5.54659e-15)
(0.0438813 -0.0316426 3.87615e-15)
(0.0420848 -0.0396525 6.80421e-15)
(0.0393328 -0.04762 -6.03098e-15)
(0.0356794 -0.0553038 9.168e-15)
(0.0312649 -0.0624981 3.34487e-15)
(0.0262823 -0.069055 -1.31369e-14)
(0.0209724 -0.0749049 -1.41556e-14)
(0.0155186 -0.080083 1.15949e-14)
(0.0101081 -0.0847074 -8.91159e-16)
(0.0047155 -0.0889585 8.59179e-16)
(-0.000449483 -0.0930912 -8.13446e-16)
(-0.00649649 -0.104206 1.36639e-16)
(-0.0129097 -0.11382 -1.21989e-16)
(-0.0201483 -0.123727 2.71374e-16)
(-0.0286243 -0.133693 7.66828e-16)
(-0.0383352 -0.143525 4.15736e-16)
(-0.0489002 -0.152908 -3.22282e-16)
(-0.0599122 -0.161602 1.3715e-15)
(-0.0720542 -0.170175 8.22024e-16)
(-0.0853807 -0.177065 -3.1459e-15)
(-0.0987882 -0.18349 -1.07519e-16)
(-0.112724 -0.188899 2.15103e-15)
(-0.126994 -0.193438 -7.37154e-16)
(-0.140803 -0.196369 -3.59174e-15)
(-0.154918 -0.198967 2.91093e-15)
(-0.168988 -0.200999 3.68927e-16)
(-0.183007 -0.20276 6.51582e-17)
(-0.194338 -0.20177 -1.2848e-15)
(-0.207588 -0.20267 5.40167e-16)
(-0.219372 -0.202573 -1.61602e-16)
(-0.231342 -0.203476 2.44692e-16)
(0.0168264 0.0212634 -1.15766e-18)
(0.0198023 0.0197216 -9.11252e-17)
(0.0225237 0.0163915 -5.37559e-16)
(0.0255689 0.0129168 1.2073e-15)
(0.0283168 0.00925091 5.38037e-17)
(0.0306028 0.00523336 -7.40634e-16)
(0.0323985 0.000761554 -7.43594e-16)
(0.0337586 -0.00412046 1.52619e-15)
(0.0346599 -0.00937785 -2.55394e-15)
(0.03505 -0.015023 -1.38582e-15)
(0.0348582 -0.0210077 -1.53743e-15)
(0.033941 -0.0271543 -3.94368e-16)
(0.0323608 -0.0334074 5.33784e-15)
(0.0301111 -0.039625 5.02506e-15)
(0.0272585 -0.045667 1.77593e-15)
(0.0238716 -0.0514209 -7.64617e-15)
(0.0200666 -0.0567949 1.31706e-15)
(0.0159243 -0.0617597 1.5668e-15)
(0.0115701 -0.0662932 1.44584e-16)
(0.00697027 -0.0704441 -9.04936e-16)
(0.00229715 -0.0741574 7.76966e-16)
(-0.00294749 -0.0830275 -1.66956e-16)
(-0.0083546 -0.0904919 2.02883e-16)
(-0.0144574 -0.0981269 -1.43701e-15)
(-0.0214078 -0.105929 2.32013e-15)
(-0.0290858 -0.113483 3.09931e-15)
(-0.0374906 -0.120645 -8.22991e-15)
(-0.0463663 -0.127378 -6.18762e-16)
(-0.055742 -0.134769 5.18749e-15)
(-0.0652746 -0.139978 -2.43711e-15)
(-0.075588 -0.144323 6.00226e-16)
(-0.086024 -0.148754 2.70887e-15)
(-0.0967167 -0.152722 -9.88692e-16)
(-0.107118 -0.155604 1.07039e-15)
(-0.117752 -0.158409 -1.85569e-15)
(-0.128396 -0.160927 -4.79789e-17)
(-0.139108 -0.163425 -3.46662e-16)
(-0.148001 -0.163921 1.04345e-15)
(-0.158393 -0.166021 -1.64064e-16)
(-0.168022 -0.167419 -5.95042e-17)
(-0.177593 -0.169476 -2.11393e-17)
(0.0129764 0.0185026 -3.67031e-17)
(0.015193 0.0173129 -1.62881e-17)
(0.017361 0.0147426 -3.98172e-16)
(0.0197991 0.0120291 3.67242e-16)
(0.0220239 0.00919854 7.61619e-16)
(0.0238839 0.00611833 1.37083e-16)
(0.0253864 0.00270862 -1.15908e-15)
(0.0265636 -0.000987001 2.28725e-15)
(0.02742 -0.0049677 -5.44622e-15)
(0.0279046 -0.00924268 3.57433e-15)
(0.0279788 -0.013811 8.96164e-15)
(0.0275344 -0.0185539 -6.32587e-15)
(0.0266088 -0.0234602 -4.35304e-15)
(0.0251869 -0.0284279 4.80626e-15)
(0.0232817 -0.0333762 9.87066e-15)
(0.0209311 -0.0382115 1.41817e-15)