/*--------------------------------*- C++ -*----------------------------------*\
| =========                 |                                                 |
| \\      /  F ield         | OpenFOAM: The Open Source CFD Toolbox           |
|  \\    /   O peration     | Version:  2312                                  |
|   \\  /    A nd           | Website:  www.openfoam.com                      |
|    \\/     M anipulation  |                                                 |
\*---------------------------------------------------------------------------*/
FoamFile
{
    version     2.0;
    format      ascii;
    arch        "LSB;label=32;scalar=64";
    class       volScalarField;
    location    "150";
    object      nut;
}
// * * * * * * * * * * * * * * * * * * * * * * * * * * * * * * * * * * * * * //

dimensions      [0 2 -1 0 0 0 0];

internalField   nonuniform List<scalar> 
11040
(
2.82161e-05
6.13772e-05
0.000110574
0.000180359
0.000316439
0.000756303
0.000845981
0.000864554
0.0009412
0.00106715
0.00124113
0.00140222
0.00153744
0.00164751
0.00173425
0.0017984
0.00184066
0.0018632
0.00186941
0.00186345
0.00184602
0.00182045
0.00179422
0.0017684
0.00174225
0.00171374
0.00168258
0.00164878
0.00161182
0.00157091
0.00152508
0.00147335
0.00141468
0.00134771
0.00127079
0.00118206
0.00106809
0.000836824
0.00067637
0.000615491
0.000702482
5.18844e-06
6.36542e-06
2.53899e-05
8.81586e-05
0.000174692
0.000409519
0.000749885
0.00122956
0.0019961
0.00293406
0.0035784
0.00390272
0.00405303
0.00413222
0.00418276
0.00420809
0.00419698
0.00414556
0.00406434
0.00397194
0.00388206
0.00380833
0.00374805
0.00368606
0.00362595
0.00356943
0.00351899
0.0034754
0.00343788
0.00340512
0.00337584
0.00334909
0.00332421
0.00330024
0.00327638
0.00325059
0.00321817
0.00314268
0.00306951
0.00298834
0.00357613
6.37957e-06
6.56671e-06
6.02417e-06
9.94662e-06
2.49321e-05
8.07667e-05
0.000205493
0.000390224
0.000650638
0.000999963
0.00146507
0.00203319
0.00267382
0.00333688
0.00395554
0.00446572
0.00483232
0.00506287
0.00519508
0.00527974
0.00534884
0.00540916
0.0054614
0.00549158
0.00551291
0.00552581
0.00553426
0.00554111
0.00554681
0.00555071
0.0055518
0.00554959
0.00554421
0.00553568
0.00552447
0.00551054
0.00549565
0.00546755
0.00545353
0.0053878
0.00572132
6.14402e-06
6.20859e-06
6.15421e-06
5.48459e-06
4.95078e-06
3.53642e-06
4.82447e-06
1.68759e-05
5.11826e-05
0.000101186
0.000155923
0.000220453
0.000322744
0.000503379
0.000804761
0.00125551
0.00185676
0.00257418
0.00334547
0.00409181
0.00474577
0.00525197
0.00561418
0.00587226
0.00607287
0.00624331
0.00639563
0.00653408
0.00665974
0.00677318
0.00687528
0.00696742
0.0070512
0.00712777
0.0071978
0.00726074
0.00731854
0.00736487
0.00742236
0.00743681
0.00760534
6.14787e-06
6.1508e-06
6.18703e-06
6.12517e-06
5.82485e-06
4.70589e-06
2.67459e-06
9.7198e-07
1.99589e-07
1.98686e-08
1.0932e-09
3.4729e-10
1.78444e-09
1.29876e-08
1.4843e-07
4.46089e-06
6.74714e-05
0.000218692
0.000466845
0.000862019
0.00143949
0.00214629
0.00288783
0.00360965
0.0042785
0.00487886
0.00540315
0.00585487
0.00624455
0.00658537
0.00689031
0.00717012
0.00743246
0.00768252
0.00792228
0.00815064
0.00836749
0.00856935
0.00876887
0.00894185
0.00910987
6.11942e-06
6.12087e-06
6.123e-06
6.13031e-06
6.13809e-06
6.11027e-06
5.77842e-06
4.89347e-06
3.65044e-06
2.50852e-06
1.73887e-06
1.30242e-06
1.04259e-06
7.75604e-07
4.77401e-07
4.98003e-08
3.54629e-08
6.53103e-12
7.85345e-05
3.54622e-09
1.42916e-05
0.00014348
0.000338494
0.000613618
0.000981252
0.00143458
0.0019623
0.00254876
0.00317701
0.00382892
0.00448792
0.00514002
0.00577435
0.00638583
0.00697084
0.00752625
0.00805125
0.00855016
0.00902606
0.00947461
0.00988782
6.114e-06
6.11742e-06
6.121e-06
6.1249e-06
6.1273e-06
6.14394e-06
6.19634e-06
6.25187e-06
6.2524e-06
6.17538e-06
6.05098e-06
5.91528e-06
5.78452e-06
5.63688e-06
5.46589e-06
5.14687e-06
4.59284e-06
3.43778e-06
1.91368e-06
3.72841e-07
9.3358e-11
5.16921e-06
4.07624e-14
2.16262e-05
2.88304e-05
3.50308e-05
0.000121251
0.000253305
0.000442046
0.000702656
0.00105247
0.00149741
0.00204253
0.00269123
0.00343989
0.00427604
0.00517711
0.00612995
0.00710149
0.00804994
0.00906279
6.1142e-06
6.11726e-06
6.11929e-06
6.1213e-06
6.12345e-06
6.12471e-06
6.12956e-06
6.15231e-06
6.20194e-06
6.27129e-06
6.34425e-06
6.40932e-06
6.4638e-06
6.51327e-06
6.55523e-06
6.61325e-06
6.64407e-06
6.69084e-06
6.5083e-06
6.0844e-06
5.03258e-06
3.72907e-06
2.17289e-06
1.17707e-06
1.53669e-07
4.68851e-07
2.51318e-06
1.67999e-05
1.43785e-08
3.58192e-05
2.36067e-05
2.0565e-05
0.000120622
0.000279293
0.000522248
0.000885331
0.00139694
0.0020909
0.00297767
0.00400398
0.00543266
6.11336e-06
6.11559e-06
6.11664e-06
6.11756e-06
6.11876e-06
6.12017e-06
6.12144e-06
6.12211e-06
6.12438e-06
6.13137e-06
6.14394e-06
6.16099e-06
6.18111e-06
6.20401e-06
6.22909e-06
6.25974e-06
6.30111e-06
6.35856e-06
6.42396e-06
6.49829e-06
6.64035e-06
6.56506e-06
6.24598e-06
5.48256e-06
4.92421e-06
4.01956e-06
2.79501e-06
1.76891e-06
8.01798e-07
2.42516e-07
1.35744e-10
1.49027e-07
1.61999e-06
1.5897e-05
5.17564e-08
4.81813e-06
3.88978e-05
0.000143558
0.000360992
0.000692866
0.00145646
6.1124e-06
6.11344e-06
6.11334e-06
6.11318e-06
6.11333e-06
6.11386e-06
6.11462e-06
6.11543e-06
6.11585e-06
6.11558e-06
6.11474e-06
6.11365e-06
6.11294e-06
6.11278e-06
6.11388e-06
6.11607e-06
6.11982e-06
6.12634e-06
6.13982e-06
6.15843e-06
6.19958e-06
6.25642e-06
6.33684e-06
6.412e-06
6.50746e-06
6.6099e-06
6.57867e-06
6.22416e-06
5.63363e-06
4.83455e-06
4.28685e-06
3.2013e-06
1.88272e-06
7.60587e-07
1.38544e-07
5.39008e-08
1.49629e-07
1.49787e-06
1.99488e-05
8.80868e-05
8.25043e-06
6.11086e-06
6.11058e-06
6.10954e-06
6.1087e-06
6.10828e-06
6.1083e-06
6.10863e-06
6.10917e-06
6.10974e-06
6.1102e-06
6.11049e-06
6.11012e-06
6.10942e-06
6.10867e-06
6.10769e-06
6.10626e-06
6.10464e-06
6.10275e-06
6.10105e-06
6.09978e-06
6.0978e-06
6.09953e-06
6.10712e-06
6.12627e-06
6.15358e-06
6.19349e-06
6.25013e-06
6.31827e-06
6.40453e-06
6.47382e-06
6.58358e-06
6.60788e-06
6.40314e-06
5.77494e-06
4.56738e-06
3.00008e-06
1.79156e-06
7.69837e-07
3.69573e-08
2.02299e-09
1.82213e-08
6.10865e-06
6.10729e-06
6.1058e-06
6.10482e-06
6.10432e-06
6.10419e-06
6.10434e-06
6.10466e-06
6.10505e-06
6.10541e-06
6.10567e-06
6.10585e-06
6.10576e-06
6.10585e-06
6.10596e-06
6.106e-06
6.10594e-06
6.10575e-06
6.10514e-06
6.10406e-06
6.10228e-06
6.10042e-06
6.09847e-06
6.09682e-06
6.09586e-06
6.09591e-06
6.09837e-06
6.10469e-06
6.11861e-06
6.13945e-06
6.17713e-06
6.23642e-06
6.31995e-06
6.40739e-06
6.48372e-06
6.52524e-06
6.36397e-06
6.00946e-06
4.70738e-06
3.18473e-06
1.14307e-06
6.1059e-06
6.10411e-06
6.10279e-06
6.10213e-06
6.10188e-06
6.1019e-06
6.10208e-06
6.10236e-06
6.10268e-06
6.10299e-06
6.10325e-06
6.10343e-06
6.10341e-06
6.10332e-06
6.10342e-06
6.10359e-06
6.1038e-06
6.10401e-06
6.10416e-06
6.10435e-06
6.10411e-06
6.10388e-06
6.10356e-06
6.1031e-06
6.10251e-06
6.10165e-06
6.10042e-06
6.09888e-06
6.09728e-06
6.0963e-06
6.09541e-06
6.09643e-06
6.10298e-06
6.12114e-06
6.15438e-06
6.21204e-06
6.29085e-06
6.4216e-06
6.56804e-06
6.671e-06
6.1948e-06
6.1031e-06
6.10161e-06
6.10089e-06
6.10072e-06
6.10078e-06
6.10095e-06
6.10116e-06
6.10141e-06
6.10168e-06
6.10193e-06
6.10216e-06
6.10235e-06
6.10248e-06
6.10245e-06
6.10236e-06
6.10239e-06
6.10248e-06
6.1026e-06
6.10271e-06
6.10291e-06
6.10297e-06
6.10294e-06
6.10296e-06
6.10302e-06
6.10309e-06
6.10315e-06
6.10318e-06
6.10313e-06
6.10295e-06
6.10265e-06
6.10209e-06
6.1011e-06
6.0997e-06
6.09829e-06
6.09738e-06
6.09758e-06
6.10031e-06
6.11382e-06
6.15771e-06
6.23887e-06
6.38689e-06
6.10072e-06
6.1001e-06
6.10005e-06
6.10022e-06
6.1004e-06
6.10056e-06
6.10071e-06
6.10088e-06
6.10106e-06
6.10124e-06
6.10143e-06
6.10163e-06
6.10181e-06
6.10194e-06
6.10203e-06
6.10207e-06
6.10202e-06
6.10194e-06
6.10189e-06
6.10193e-06
6.10184e-06
6.10186e-06
6.10193e-06
6.10204e-06
6.10218e-06
6.10233e-06
6.1025e-06
6.10269e-06
6.10289e-06
6.10309e-06
6.10331e-06
6.10351e-06
6.10363e-06
6.10362e-06
6.10343e-06
6.1028e-06
6.10137e-06
6.09867e-06
6.09725e-06
6.09555e-06
6.11254e-06
6.09906e-06
6.09955e-06
6.09985e-06
6.10002e-06
6.10008e-06
6.10011e-06
6.10012e-06
6.10014e-06
6.1002e-06
6.10029e-06
6.10041e-06
6.10056e-06
6.10073e-06
6.1009e-06
6.10106e-06
6.10121e-06
6.10133e-06
6.10143e-06
6.10152e-06
6.10158e-06
6.10166e-06
6.1018e-06
6.10196e-06
6.10214e-06
6.10233e-06
6.10253e-06
6.10275e-06
6.10297e-06
6.10321e-06
6.10345e-06
6.10372e-06
6.10399e-06
6.10429e-06
6.1046e-06
6.10493e-06
6.10526e-06
6.10556e-06
6.10564e-06
6.10526e-06
6.10451e-06
6.10213e-06
6.09812e-06
6.09947e-06
6.09976e-06
6.09974e-06
6.09964e-06
6.09952e-06
6.09935e-06
6.09924e-06
6.09918e-06
6.09916e-06
6.09916e-06
6.09918e-06
6.09921e-06
6.09925e-06
6.09928e-06
6.09931e-06
6.09932e-06
6.09929e-06
6.09925e-06
6.09929e-06
6.09928e-06
6.09929e-06
6.09934e-06
6.09942e-06
6.09952e-06
6.09963e-06
6.09976e-06
6.09991e-06
6.10007e-06
6.10024e-06
6.10043e-06
6.10064e-06
6.10087e-06
6.10111e-06
6.10138e-06
6.10168e-06
6.10201e-06
6.10239e-06
6.10272e-06
6.10326e-06
6.10343e-06
6.09746e-06
6.09905e-06
6.09939e-06
6.09935e-06
6.09923e-06
6.0991e-06
6.09899e-06
6.09892e-06
6.09888e-06
6.09885e-06
6.09886e-06
6.09887e-06
6.0989e-06
6.09894e-06
6.099e-06
6.09907e-06
6.09915e-06
6.09924e-06
6.09935e-06
6.09947e-06
6.09959e-06
6.09968e-06
6.09976e-06
6.09982e-06
6.09987e-06
6.0999e-06
6.09993e-06
6.09994e-06
6.09995e-06
6.09995e-06
6.09995e-06
6.09994e-06
6.09993e-06
6.09991e-06
6.09989e-06
6.09987e-06
6.09984e-06
6.09983e-06
6.09981e-06
6.09979e-06
6.09998e-06
6.09693e-06
6.09852e-06
6.09875e-06
6.09858e-06
6.09836e-06
6.09816e-06
6.09801e-06
6.09792e-06
6.09786e-06
6.09784e-06
6.09785e-06
6.09788e-06
6.09791e-06
6.09796e-06
6.09803e-06
6.0981e-06
6.09817e-06
6.09826e-06
6.09835e-06
6.09846e-06
6.09858e-06
6.09869e-06
6.09878e-06
6.09887e-06
6.09894e-06
6.099e-06
6.09905e-06
6.0991e-06
6.09913e-06
6.09916e-06
6.09917e-06
6.09919e-06
6.09919e-06
6.09919e-06
6.09918e-06
6.09917e-06
6.09914e-06
6.09911e-06
6.09909e-06
6.099e-06
6.09903e-06
6.09664e-06
6.09809e-06
6.09815e-06
6.09786e-06
6.09758e-06
6.09736e-06
6.09722e-06
6.09714e-06
6.0971e-06
6.0971e-06
6.09713e-06
6.09717e-06
6.09722e-06
6.09729e-06
6.09736e-06
6.09744e-06
6.09752e-06
6.09761e-06
6.0977e-06
6.0978e-06
6.0979e-06
6.09799e-06
6.09807e-06
6.09814e-06
6.0982e-06
6.09824e-06
6.09828e-06
6.09831e-06
6.09833e-06
6.09835e-06
6.09836e-06
6.09837e-06
6.09837e-06
6.09836e-06
6.09835e-06
6.09835e-06
6.09832e-06
6.0983e-06
6.09828e-06
6.09824e-06
6.09823e-06
6.09641e-06
6.09758e-06
6.09747e-06
6.09711e-06
6.09681e-06
6.09661e-06
6.09649e-06
6.09644e-06
6.09644e-06
6.09646e-06
6.09651e-06
6.09658e-06
6.09665e-06
6.09674e-06
6.09683e-06
6.09692e-06
6.09702e-06
6.09711e-06
6.09721e-06
6.09732e-06
6.09742e-06
6.09751e-06
6.0976e-06
6.09768e-06
6.09774e-06
6.0978e-06
6.09784e-06
6.09788e-06
6.0979e-06
6.09793e-06
6.09794e-06
6.09795e-06
6.09795e-06
6.09795e-06
6.09795e-06
6.09794e-06
6.09792e-06
6.09791e-06
6.09788e-06
6.09786e-06
6.09782e-06
6.09616e-06
6.09701e-06
6.09676e-06
6.09638e-06
6.0961e-06
6.09593e-06
6.09585e-06
6.09584e-06
6.09587e-06
6.09592e-06
6.096e-06
6.09609e-06
6.09619e-06
6.09629e-06
6.0964e-06
6.09651e-06
6.09662e-06
6.09673e-06
6.09684e-06
6.09696e-06
6.09707e-06
6.09718e-06
6.09728e-06
6.09736e-06
6.09744e-06
6.0975e-06
6.09756e-06
6.09761e-06
6.09765e-06
6.09769e-06
6.09772e-06
6.09774e-06
6.09776e-06
6.09777e-06
6.09778e-06
6.09779e-06
6.09778e-06
6.09779e-06
6.09777e-06
6.09778e-06
6.09772e-06
6.09581e-06
6.09638e-06
6.09606e-06
6.09569e-06
6.09544e-06
6.09531e-06
6.09528e-06
6.0953e-06
6.09536e-06
6.09545e-06
6.09556e-06
6.09567e-06
6.09579e-06
6.09592e-06
6.09605e-06
6.09617e-06
6.0963e-06
6.09643e-06
6.09656e-06
6.09668e-06
6.09681e-06
6.09693e-06
6.09704e-06
6.09714e-06
6.09723e-06
6.09731e-06
6.09739e-06
6.09745e-06
6.09751e-06
6.09755e-06
6.0976e-06
6.09764e-06
6.09767e-06
6.09769e-06
6.09772e-06
6.09774e-06
6.09775e-06
6.09776e-06
6.09776e-06
6.09778e-06
6.09775e-06
6.09537e-06
6.09572e-06
6.09536e-06
6.09502e-06
6.09482e-06
6.09474e-06
6.09475e-06
6.09481e-06
6.09491e-06
6.09503e-06
6.09516e-06
6.09531e-06
6.09545e-06
6.0956e-06
6.09575e-06
6.09589e-06
6.09604e-06
6.09618e-06
6.09633e-06
6.09647e-06
6.09661e-06
6.09674e-06
6.09687e-06
6.09698e-06
6.09709e-06
6.09719e-06
6.09727e-06
6.09735e-06
6.09742e-06
6.09749e-06
6.09755e-06
6.0976e-06
6.09764e-06
6.09769e-06
6.09772e-06
6.09776e-06
6.09778e-06
6.09781e-06
6.09782e-06
6.09786e-06
6.09784e-06
6.09486e-06
6.09505e-06
6.09468e-06
6.09438e-06
6.09423e-06
6.0942e-06
6.09425e-06
6.09435e-06
6.09449e-06
6.09464e-06
6.0948e-06
6.09497e-06
6.09514e-06
6.09531e-06
6.09548e-06
6.09564e-06
6.09581e-06
6.09597e-06
6.09613e-06
6.09629e-06
6.09644e-06
6.09659e-06
6.09673e-06
6.09686e-06
6.09698e-06
6.09709e-06
6.09719e-06
6.09729e-06
6.09737e-06
6.09745e-06
6.09753e-06
6.09759e-06
6.09765e-06
6.09771e-06
6.09776e-06
6.09781e-06
6.09785e-06
6.09789e-06
6.09791e-06
6.09797e-06
6.09795e-06
6.0943e-06
6.09436e-06
6.09401e-06
6.09375e-06
6.09366e-06
6.09368e-06
6.09377e-06
6.09391e-06
6.09408e-06
6.09426e-06
6.09445e-06
6.09465e-06
6.09484e-06
6.09503e-06
6.09522e-06
6.09541e-06
6.09559e-06
6.09577e-06
6.09594e-06
6.09611e-06
6.09629e-06
6.09645e-06
6.0966e-06
6.09675e-06
6.09688e-06
6.09701e-06
6.09712e-06
6.09723e-06
6.09733e-06
6.09743e-06
6.09751e-06
6.09759e-06
6.09767e-06
6.09774e-06
6.0978e-06
6.09787e-06
6.09792e-06
6.09797e-06
6.09801e-06
6.09809e-06
6.09806e-06
6.09369e-06
6.09367e-06
6.09334e-06
6.09314e-06
6.0931e-06
6.09317e-06
6.0933e-06
6.09348e-06
6.09367e-06
6.09389e-06
6.0941e-06
6.09432e-06
6.09454e-06
6.09475e-06
6.09496e-06
6.09516e-06
6.09536e-06
6.09556e-06
6.09575e-06
6.09594e-06
6.09612e-06
6.0963e-06
6.09647e-06
6.09662e-06
6.09677e-06
6.09691e-06
6.09704e-06
6.09716e-06
6.09728e-06
6.09738e-06
6.09748e-06
6.09758e-06
6.09766e-06
6.09775e-06
6.09782e-06
6.0979e-06
6.09796e-06
6.09803e-06
6.09808e-06
6.09817e-06
6.09815e-06
6.09304e-06
6.09297e-06
6.09268e-06
6.09254e-06
6.09255e-06
6.09265e-06
6.09283e-06
6.09303e-06
6.09326e-06
6.09349e-06
6.09373e-06
6.09397e-06
6.09421e-06
6.09444e-06
6.09467e-06
6.09489e-06
6.0951e-06
6.09532e-06
6.09552e-06
6.09573e-06
6.09593e-06
6.09612e-06
6.0963e-06
6.09647e-06
6.09663e-06
6.09678e-06
6.09692e-06
6.09706e-06
6.09718e-06
6.0973e-06
6.09741e-06
6.09752e-06
6.09762e-06
6.09771e-06
6.0978e-06
6.09788e-06
6.09796e-06
6.09804e-06
6.0981e-06
6.09819e-06
6.09819e-06
6.09236e-06
6.09225e-06
6.09201e-06
6.09192e-06
6.09198e-06
6.09213e-06
6.09233e-06
6.09257e-06
6.09281e-06
6.09307e-06
6.09333e-06
6.09358e-06
6.09384e-06
6.09409e-06
6.09433e-06
6.09457e-06
6.0948e-06
6.09503e-06
6.09525e-06
6.09547e-06
6.09568e-06
6.09589e-06
6.09608e-06
6.09626e-06
6.09643e-06
6.0966e-06
6.09675e-06
6.09689e-06
6.09703e-06
6.09716e-06
6.09728e-06
6.0974e-06
6.09751e-06
6.09761e-06
6.09771e-06
6.0978e-06
6.09789e-06
6.09797e-06
6.09804e-06
6.09814e-06
6.09815e-06
6.09165e-06
6.09152e-06
6.09133e-06
6.0913e-06
6.0914e-06
6.09158e-06
6.09181e-06
6.09206e-06
6.09233e-06
6.0926e-06
6.09287e-06
6.09315e-06
6.09341e-06
6.09368e-06
6.09394e-06
6.09419e-06
6.09444e-06
6.09468e-06
6.09491e-06
6.09514e-06
6.09537e-06
6.09559e-06
6.09579e-06
6.09598e-06
6.09617e-06
6.09634e-06
6.0965e-06
6.09665e-06
6.0968e-06
6.09694e-06
6.09707e-06
6.09719e-06
6.09731e-06
6.09742e-06
6.09752e-06
6.09762e-06
6.09772e-06
6.09781e-06
6.09789e-06
6.09799e-06
6.09802e-06
6.0909e-06
6.09077e-06
6.09063e-06
6.09064e-06
6.09078e-06
6.09099e-06
6.09124e-06
6.0915e-06
6.09178e-06
6.09207e-06
6.09235e-06
6.09264e-06
6.09292e-06
6.09319e-06
6.09346e-06
6.09373e-06
6.09399e-06
6.09424e-06
6.09449e-06
6.09473e-06
6.09497e-06
6.09519e-06
6.09541e-06
6.09561e-06
6.0958e-06
6.09598e-06
6.09615e-06
6.09632e-06
6.09647e-06
6.09662e-06
6.09675e-06
6.09688e-06
6.09701e-06
6.09712e-06
6.09723e-06
6.09734e-06
6.09744e-06
6.09753e-06
6.09761e-06
6.09772e-06
6.09776e-06
6.09011e-06
6.08999e-06
6.08989e-06
6.08995e-06
6.09011e-06
6.09034e-06
6.0906e-06
6.09088e-06
6.09116e-06
6.09146e-06
6.09175e-06
6.09204e-06
6.09233e-06
6.09262e-06
6.0929e-06
6.09317e-06
6.09344e-06
6.09371e-06
6.09396e-06
6.09421e-06
6.09446e-06
6.0947e-06
6.09492e-06
6.09513e-06
6.09533e-06
6.09552e-06
6.0957e-06
6.09586e-06
6.09602e-06
6.09617e-06
6.09632e-06
6.09645e-06
6.09658e-06
6.0967e-06
6.09681e-06
6.09692e-06
6.09702e-06
6.09712e-06
6.09721e-06
6.09731e-06
6.09736e-06
6.08929e-06
6.08919e-06
6.08913e-06
6.08921e-06
6.08939e-06
6.08962e-06
6.08988e-06
6.09016e-06
6.09045e-06
6.09075e-06
6.09105e-06
6.09135e-06
6.09164e-06
6.09194e-06
6.09223e-06
6.09251e-06
6.09279e-06
6.09306e-06
6.09332e-06
6.09358e-06
6.09383e-06
6.09408e-06
6.09431e-06
6.09452e-06
6.09473e-06
6.09492e-06
6.09511e-06
6.09528e-06
6.09545e-06
6.0956e-06
6.09575e-06
6.09589e-06
6.09601e-06
6.09614e-06
6.09625e-06
6.09636e-06
6.09647e-06
6.09657e-06
6.09666e-06
6.09676e-06
6.09681e-06
6.08843e-06
6.08834e-06
6.08832e-06
6.08842e-06
6.0886e-06
6.08883e-06
6.08908e-06
6.08935e-06
6.08964e-06
6.08993e-06
6.09023e-06
6.09054e-06
6.09084e-06
6.09114e-06
6.09143e-06
6.09172e-06
6.09201e-06
6.09229e-06
6.09256e-06
6.09282e-06
6.09308e-06
6.09333e-06
6.09356e-06
6.09378e-06
6.09399e-06
6.09419e-06
6.09438e-06
6.09456e-06
6.09472e-06
6.09488e-06
6.09503e-06
6.09517e-06
6.0953e-06
6.09543e-06
6.09554e-06
6.09565e-06
6.09576e-06
6.09586e-06
6.09594e-06
6.09604e-06
6.0961e-06
6.08752e-06
6.08746e-06
6.08746e-06
6.08756e-06
6.08773e-06
6.08795e-06
6.08818e-06
6.08844e-06
6.08872e-06
6.089e-06
6.0893e-06
6.0896e-06
6.0899e-06
6.09021e-06
6.09051e-06
6.09081e-06
6.0911e-06
6.09138e-06
6.09166e-06
6.09192e-06
6.09219e-06
6.09244e-06
6.09267e-06
6.0929e-06
6.09311e-06
6.09331e-06
6.0935e-06
6.09368e-06
6.09385e-06
6.09401e-06
6.09416e-06
6.0943e-06
6.09443e-06
6.09456e-06
6.09467e-06
6.09478e-06
6.09489e-06
6.09498e-06
6.09507e-06
6.09516e-06
6.09522e-06
6.08657e-06
6.08652e-06
6.08653e-06
6.08663e-06
6.08679e-06
6.08697e-06
6.08718e-06
6.08742e-06
6.08768e-06
6.08795e-06
6.08824e-06
6.08854e-06
6.08884e-06
6.08915e-06
6.08945e-06
6.08975e-06
6.09005e-06
6.09033e-06
6.09061e-06
6.09088e-06
6.09115e-06
6.0914e-06
6.09164e-06
6.09187e-06
6.09208e-06
6.09228e-06
6.09248e-06
6.09266e-06
6.09282e-06
6.09298e-06
6.09313e-06
6.09327e-06
6.0934e-06
6.09353e-06
6.09364e-06
6.09375e-06
6.09385e-06
6.09394e-06
6.09403e-06
6.09412e-06
6.09417e-06
6.08555e-06
6.08552e-06
6.08554e-06
6.08562e-06
6.08574e-06
6.0859e-06
6.08608e-06
6.08629e-06
6.08653e-06
6.08678e-06
6.08706e-06
6.08735e-06
6.08765e-06
6.08795e-06
6.08825e-06
6.08855e-06
6.08885e-06
6.08914e-06
6.08942e-06
6.08969e-06
6.08996e-06
6.09021e-06
6.09045e-06
6.09068e-06
6.09089e-06
6.09109e-06
6.09128e-06
6.09146e-06
6.09163e-06
6.09179e-06
6.09194e-06
6.09207e-06
6.0922e-06
6.09232e-06
6.09243e-06
6.09253e-06
6.09263e-06
6.09272e-06
6.0928e-06
6.09288e-06
6.09293e-06
6.08448e-06
6.08446e-06
6.08447e-06
6.08452e-06
6.0846e-06
6.08471e-06
6.08486e-06
6.08504e-06
6.08526e-06
6.0855e-06
6.08576e-06
6.08603e-06
6.08632e-06
6.08662e-06
6.08692e-06
6.08721e-06
6.08751e-06
6.08779e-06
6.08808e-06
6.08835e-06
6.08861e-06
6.08886e-06
6.0891e-06
6.08932e-06
6.08953e-06
6.08973e-06
6.08992e-06
6.0901e-06
6.09026e-06
6.09041e-06
6.09056e-06
6.09069e-06
6.09081e-06
6.09093e-06
6.09104e-06
6.09113e-06
6.09123e-06
6.09131e-06
6.09138e-06
6.09146e-06
6.09151e-06
6.08334e-06
6.08331e-06
6.0833e-06
6.08331e-06
6.08335e-06
6.08342e-06
6.08353e-06
6.08368e-06
6.08387e-06
6.08409e-06
6.08433e-06
6.08459e-06
6.08486e-06
6.08514e-06
6.08543e-06
6.08572e-06
6.08601e-06
6.08629e-06
6.08656e-06
6.08683e-06
6.08708e-06
6.08733e-06
6.08756e-06
6.08778e-06
6.08799e-06
6.08818e-06
6.08836e-06
6.08853e-06
6.08869e-06
6.08884e-06
6.08898e-06
6.0891e-06
6.08922e-06
6.08933e-06
6.08943e-06
6.08952e-06
6.0896e-06
6.08968e-06
6.08974e-06
6.08981e-06
6.08985e-06
6.08212e-06
6.08208e-06
6.08203e-06
6.082e-06
6.08199e-06
6.08202e-06
6.08209e-06
6.08221e-06
6.08237e-06
6.08256e-06
6.08277e-06
6.08301e-06
6.08326e-06
6.08352e-06
6.08379e-06
6.08406e-06
6.08433e-06
6.0846e-06
6.08486e-06
6.08512e-06
6.08536e-06
6.0856e-06
6.08582e-06
6.08603e-06
6.08623e-06
6.08641e-06
6.08659e-06
6.08675e-06
6.0869e-06
6.08704e-06
6.08717e-06
6.08729e-06
6.0874e-06
6.0875e-06
6.0876e-06
6.08768e-06
6.08776e-06
6.08783e-06
6.08789e-06
6.08795e-06
6.08798e-06
6.08082e-06
6.08076e-06
6.08067e-06
6.08058e-06
6.08053e-06
6.08052e-06
6.08055e-06
6.08063e-06
6.08075e-06
6.0809e-06
6.08108e-06
6.08129e-06
6.08151e-06
6.08174e-06
6.08198e-06
6.08223e-06
6.08248e-06
6.08272e-06
6.08297e-06
6.0832e-06
6.08343e-06
6.08365e-06
6.08385e-06
6.08405e-06
6.08424e-06
6.08441e-06
6.08457e-06
6.08472e-06
6.08486e-06
6.08499e-06
6.0851e-06
6.08521e-06
6.08531e-06
6.08539e-06
6.08547e-06
6.08554e-06
6.0856e-06
6.08565e-06
6.08569e-06
6.08574e-06
6.08576e-06
6.07943e-06
6.07935e-06
6.07921e-06
6.07907e-06
6.07897e-06
6.07892e-06
6.07892e-06
6.07895e-06
6.07903e-06
6.07913e-06
6.07927e-06
6.07942e-06
6.0796e-06
6.07979e-06
6.07999e-06
6.0802e-06
6.08041e-06
6.08063e-06
6.08084e-06
6.08104e-06
6.08124e-06
6.08143e-06
6.08162e-06
6.08179e-06
6.08196e-06
6.08211e-06
6.08225e-06
6.08239e-06
6.08251e-06
6.08263e-06
6.08273e-06
6.08283e-06
6.08292e-06
6.083e-06
6.08307e-06
6.08314e-06
6.0832e-06
6.08325e-06
6.08329e-06
6.08334e-06
6.08335e-06
6.07794e-06
6.07783e-06
6.07765e-06
6.07748e-06
6.07734e-06
6.07725e-06
6.0772e-06
6.07719e-06
6.07721e-06
6.07726e-06
6.07733e-06
6.07743e-06
6.07754e-06
6.07767e-06
6.07782e-06
6.07797e-06
6.07814e-06
6.0783e-06
6.07847e-06
6.07863e-06
6.07879e-06
6.07895e-06
6.0791e-06
6.07925e-06
6.07938e-06
6.07951e-06
6.07963e-06
6.07974e-06
6.07984e-06
6.07993e-06
6.08001e-06
6.08008e-06
6.08014e-06
6.08018e-06
6.08022e-06
6.08025e-06
6.08027e-06
6.08028e-06
6.08028e-06
6.08028e-06
6.08026e-06
6.07634e-06
6.07621e-06
6.076e-06
6.07581e-06
6.07565e-06
6.07553e-06
6.07544e-06
6.07537e-06
6.07533e-06
6.07531e-06
6.07531e-06
6.07532e-06
6.07536e-06
6.07541e-06
6.07547e-06
6.07555e-06
6.07563e-06
6.07572e-06
6.07582e-06
6.07591e-06
6.07601e-06
6.0761e-06
6.07619e-06
6.07628e-06
6.07636e-06
6.07645e-06
6.07652e-06
6.0766e-06
6.07666e-06
6.07673e-06
6.07679e-06
6.07685e-06
6.0769e-06
6.07695e-06
6.077e-06
6.07704e-06
6.07708e-06
6.07712e-06
6.07715e-06
6.07718e-06
6.07719e-06
6.07464e-06
6.07448e-06
6.07427e-06
6.07408e-06
6.07391e-06
6.07377e-06
6.07364e-06
6.07353e-06
6.07343e-06
6.07334e-06
6.07326e-06
6.07318e-06
6.07312e-06
6.07306e-06
6.07301e-06
6.07298e-06
6.07295e-06
6.07294e-06
6.07293e-06
6.07294e-06
6.07296e-06
6.07299e-06
6.07302e-06
6.07307e-06
6.07312e-06
6.07317e-06
6.07322e-06
6.07326e-06
6.07331e-06
6.07334e-06
6.07337e-06
6.07338e-06
6.07339e-06
6.07338e-06
6.07336e-06
6.07334e-06
6.07329e-06
6.07326e-06
6.07322e-06
6.0732e-06
6.07317e-06
6.07281e-06
6.07266e-06
6.07247e-06
6.0723e-06
6.07215e-06
6.072e-06
6.07187e-06
6.07173e-06
6.07158e-06
6.07143e-06
6.07127e-06
6.07111e-06
6.07094e-06
6.07077e-06
6.07061e-06
6.07047e-06
6.07035e-06
6.07024e-06
6.07015e-06
6.07006e-06
6.06999e-06
6.06995e-06
6.06994e-06
6.06993e-06
6.06995e-06
6.06997e-06
6.06999e-06
6.07002e-06
6.07004e-06
6.07007e-06
6.07009e-06
6.07011e-06
6.07012e-06
6.07012e-06
6.07012e-06
6.07011e-06
6.07011e-06
6.07011e-06
6.07012e-06
6.07014e-06
6.07015e-06
6.07084e-06
6.07073e-06
6.0706e-06
6.07049e-06
6.07038e-06
6.07027e-06
6.07015e-06
6.07002e-06
6.06987e-06
6.06969e-06
6.06948e-06
6.06924e-06
6.069e-06
6.0688e-06
6.0687e-06
6.06869e-06
6.06876e-06
6.06886e-06
6.06899e-06
6.06913e-06
6.06926e-06
6.06937e-06
6.06948e-06
6.06958e-06
6.06969e-06
6.06978e-06
6.06987e-06
6.06996e-06
6.07004e-06
6.07011e-06
6.07017e-06
6.07022e-06
6.07026e-06
6.0703e-06
6.07033e-06
6.07035e-06
6.07038e-06
6.0704e-06
6.07041e-06
6.07043e-06
6.07044e-06
6.06872e-06
6.06868e-06
6.06864e-06
6.06861e-06
6.06858e-06
6.06855e-06
6.06851e-06
6.06846e-06
6.06838e-06
6.06829e-06
6.06816e-06
6.06796e-06
6.06789e-06
6.06799e-06
6.06821e-06
6.06853e-06
6.06894e-06
6.06942e-06
6.06996e-06
6.07056e-06
6.07121e-06
6.07191e-06
6.07264e-06
6.0734e-06
6.07418e-06
6.075e-06
6.0758e-06
6.07657e-06
6.0773e-06
6.07799e-06
6.07863e-06
6.07922e-06
6.07976e-06
6.08027e-06
6.08074e-06
6.08117e-06
6.08157e-06
6.08195e-06
6.08229e-06
6.08262e-06
6.08289e-06
0.00417055
0.00570212
0.00642432
0.00680852
0.00700481
0.00706413
0.00700601
0.0068354
0.00655433
0.00615483
0.00564451
0.00502714
0.00431028
0.00349941
0.00262943
0.00176621
0.000954378
0.000365422
3.0262e-07
7.60612e-05
3.8411e-08
5.95541e-08
1.94574e-06
8.1629e-06
9.9845e-06
7.82013e-06
6.07459e-06
5.60338e-06
5.8136e-06
6.10685e-06
6.22953e-06
6.2074e-06
6.14955e-06
6.11443e-06
6.10545e-06
6.10756e-06
6.10939e-06
6.10768e-06
6.10389e-06
6.10029e-06
6.09807e-06
6.09722e-06
6.09716e-06
6.09737e-06
6.09762e-06
6.09769e-06
6.09812e-06
6.09846e-06
6.09876e-06
6.09906e-06
6.09934e-06
6.09954e-06
6.09965e-06
6.09965e-06
6.09957e-06
6.09939e-06
6.0991e-06
6.09896e-06
6.09851e-06
6.098e-06
6.09749e-06
6.09696e-06
6.09642e-06
6.0959e-06
6.09542e-06
6.09499e-06
6.09464e-06
6.09439e-06
6.09428e-06
6.0943e-06
6.09446e-06
6.09474e-06
6.09513e-06
6.09582e-06
0.00593255
0.00747265
0.00829711
0.00870175
0.00889733
0.00897545
0.0089601
0.008849
0.00864004
0.00832968
0.00791578
0.00739466
0.00676347
0.00601793
0.00515566
0.00419321
0.00314046
0.0020963
0.0011358
0.00046576
3.33314e-05
0.000109063
1.61812e-06
1.22015e-10
7.07622e-07
4.936e-06
8.78363e-06
8.25812e-06
6.7108e-06
5.91166e-06
5.7828e-06
5.94177e-06
6.119e-06
6.19454e-06
6.18297e-06
6.14175e-06
6.11009e-06
6.09776e-06
6.09778e-06
6.10073e-06
6.10172e-06
6.10043e-06
6.0985e-06
6.09726e-06
6.09702e-06
6.0976e-06
6.09867e-06
6.09955e-06
6.10009e-06
6.10049e-06
6.10084e-06
6.10114e-06
6.10134e-06
6.10144e-06
6.10142e-06
6.10127e-06
6.10098e-06
6.10052e-06
6.09991e-06
6.09928e-06
6.09868e-06
6.09809e-06
6.0975e-06
6.09691e-06
6.09635e-06
6.09583e-06
6.09536e-06
6.09497e-06
6.0947e-06
6.09457e-06
6.09458e-06
6.09473e-06
6.09503e-06
6.09559e-06
0.00737999
0.00859749
0.00948235
0.00996158
0.0102348
0.0104002
0.0104794
0.0104653
0.0103629
0.0101759
0.00990153
0.00953158
0.00905703
0.00846976
0.00775965
0.00692272
0.00594241
0.00484531
0.00365451
0.00245341
0.00137452
0.000581056
7.06297e-05
1.0438e-07
5.7665e-07
1.05193e-07
3.73602e-07
2.16482e-06
6.76417e-06
9.0858e-06
7.85737e-06
6.46617e-06
5.83498e-06
5.77733e-06
5.96021e-06
6.13016e-06
6.19066e-06
6.16822e-06
6.12413e-06
6.09534e-06
6.08771e-06
6.09184e-06
6.09764e-06
6.10043e-06
6.10019e-06
6.09913e-06
6.09898e-06
6.0997e-06
6.10071e-06
6.10163e-06
6.10236e-06
6.10285e-06
6.10313e-06
6.10324e-06
6.10323e-06
6.10312e-06
6.10291e-06
6.10231e-06
6.10158e-06
6.10081e-06
6.10008e-06
6.0994e-06
6.09875e-06
6.0981e-06
6.09746e-06
6.09685e-06
6.09628e-06
6.09577e-06
6.09535e-06
6.09505e-06
6.09489e-06
6.09488e-06
6.09505e-06
6.09544e-06
0.00899006
0.00999933
0.0105382
0.0107473
0.0110121
0.0112515
0.0114184
0.0114866
0.0114977
0.0114582
0.011357
0.0111761
0.0109022
0.0105265
0.0100385
0.00942893
0.00867219
0.00777011
0.0067163
0.00551265
0.00420524
0.00288626
0.0016777
0.000791311
0.00020713
0.000222687
4.90187e-05
7.18199e-12
3.89853e-07
1.46432e-06
4.71949e-06
8.57704e-06
8.83837e-06
7.35842e-06
6.18363e-06
5.75416e-06
5.79545e-06
6.00003e-06
6.15209e-06
6.19079e-06
6.15923e-06
6.11527e-06
6.08917e-06
6.08392e-06
6.08976e-06
6.09699e-06
6.10162e-06
6.10332e-06
6.1033e-06
6.1029e-06
6.10294e-06
6.1035e-06
6.10422e-06
6.10476e-06
6.105e-06
6.10496e-06
6.10477e-06
6.10425e-06
6.10349e-06
6.10262e-06
6.10174e-06
6.10094e-06
6.1002e-06
6.09948e-06
6.09877e-06
6.09807e-06
6.09741e-06
6.09678e-06
6.09623e-06
6.09577e-06
6.09544e-06
6.09523e-06
6.09525e-06
6.09539e-06
0.010078
0.0109783
0.0115896
0.0119009
0.0120341
0.0120854
0.012089
0.0120111
0.0120436
0.0121067
0.0121492
0.0121332
0.0120528
0.0119053
0.0116761
0.0113478
0.0108834
0.0102805
0.00953198
0.00861231
0.00751264
0.00624204
0.00484521
0.0034178
0.00209413
0.00105808
0.00036499
1.37577e-05
0.000126705
2.95736e-06
9.89788e-08
2.28289e-08
1.78234e-06
5.64681e-06
8.3799e-06
8.22254e-06
6.94544e-06
6.03447e-06
5.70743e-06
5.79456e-06
6.00449e-06
6.14865e-06
6.18511e-06
6.156e-06
6.11419e-06
6.08846e-06
6.08337e-06
6.09055e-06
6.1e-06
6.10602e-06
6.10781e-06
6.10722e-06
6.10617e-06
6.10565e-06
6.1057e-06
6.10598e-06
6.10624e-06
6.1062e-06
6.10571e-06
6.10484e-06
6.1038e-06
6.10278e-06
6.10188e-06
6.10106e-06
6.10028e-06
6.09951e-06
6.09875e-06
6.09802e-06
6.09734e-06
6.09674e-06
6.09624e-06
6.09584e-06
6.09568e-06
6.09551e-06
0.0104288
0.0109666
0.0114735
0.0119204
0.0122804
0.0125347
0.012689
0.0127382
0.0127351
0.012705
0.0126522
0.0125526
0.0125
0.0124944
0.0124804
0.0124103
0.0122363
0.0119726
0.0115909
0.011062
0.0103593
0.00946125
0.00835825
0.00705833
0.00560738
0.00409464
0.00265958
0.00147885
0.000657775
0.000107737
6.40062e-07
1.53686e-06
8.08541e-09
5.78739e-10
5.21109e-07
3.20948e-06
7.57594e-06
8.90355e-06
8.11238e-06
6.80107e-06
5.91716e-06
5.65973e-06
5.77668e-06
5.99139e-06
6.13927e-06
6.18234e-06
6.15814e-06
6.11802e-06
6.09241e-06
6.0868e-06
6.09333e-06
6.10252e-06
6.10883e-06
6.11114e-06
6.11073e-06
6.10931e-06
6.10808e-06
6.10743e-06
6.10713e-06
6.10674e-06
6.10604e-06
6.10508e-06
6.10406e-06
6.10306e-06
6.10212e-06
6.10121e-06
6.10033e-06
6.09948e-06
6.09868e-06
6.09794e-06
6.0973e-06
6.09672e-06
6.0964e-06
6.09589e-06
0.00926837
0.00938885
0.00960317
0.00994983
0.0104117
0.0109399
0.0114669
0.0119397
0.0123277
0.0126202
0.012819
0.0129196
0.0129466
0.012928
0.0128743
0.0127679
0.0126799
0.0126369
0.0125725
0.0124226
0.0121508
0.0117262
0.0111175
0.0102954
0.00924447
0.00796431
0.00650139
0.00493518
0.00341256
0.00204949
0.00103955
0.000369604
0.000332995
0.000139871
4.23112e-07
3.56576e-08
2.601e-08
6.75762e-07
4.27642e-06
8.33812e-06
9.35924e-06
8.22083e-06
6.7506e-06
5.89029e-06
5.65099e-06
5.76565e-06
5.97852e-06
6.13443e-06
6.18939e-06
6.17325e-06
6.13421e-06
6.10399e-06
6.09211e-06
6.09422e-06
6.10195e-06
6.10887e-06
6.11237e-06
6.1128e-06
6.11156e-06
6.10985e-06
6.10823e-06
6.10689e-06
6.10584e-06
6.105e-06
6.10421e-06
6.10337e-06
6.10242e-06
6.1014e-06
6.10038e-06
6.09942e-06
6.0986e-06