/*--------------------------------*- C++ -*----------------------------------*\
| =========                 |                                                 |
| \\      /  F ield         | OpenFOAM: The Open Source CFD Toolbox           |
|  \\    /   O peration     | Version:  2312                                  |
|   \\  /    A nd           | Website:  www.openfoam.com                      |
|    \\/     M anipulation  |                                                 |
\*---------------------------------------------------------------------------*/
FoamFile
{
    version     2.0;
    format      ascii;
    arch        "LSB;label=32;scalar=64";
    class       volScalarField;
    location    "150";
    object      nuTilda;
}
// * * * * * * * * * * * * * * * * * * * * * * * * * * * * * * * * * * * * * //

dimensions      [0 2 -1 0 0 0 0];

internalField   nonuniform List<scalar> 
11040
(
6.4996e-05
9.07602e-05
0.000129007
0.0001898
0.000319899
0.000756928
0.000846481
0.000865033
0.000941604
0.00106747
0.00124136
0.0014024
0.00153759
0.00164764
0.00173437
0.00179851
0.00184077
0.0018633
0.00186951
0.00186355
0.00184612
0.00182056
0.00179433
0.00176851
0.00174237
0.00171386
0.00168271
0.00164892
0.00161196
0.00157105
0.00152523
0.00147351
0.00141485
0.00134791
0.00127101
0.00118232
0.0010684
0.000837334
0.00067715
0.000616431
0.000703205
3.82838e-05
4.05455e-05
6.25401e-05
0.000111142
0.000184627
0.000411621
0.000750519
0.0012298
0.00199618
0.0029341
0.00357843
0.00390274
0.00405305
0.00413224
0.00418278
0.00420811
0.004197
0.00414558
0.00406436
0.00397196
0.00388209
0.00380835
0.00374807
0.00368608
0.00362598
0.00356946
0.00351902
0.00347543
0.00343791
0.00340515
0.00337587
0.00334912
0.00332424
0.00330027
0.00327642
0.00325062
0.0032182
0.00314271
0.00306955
0.00298838
0.00357616
4.0571e-05
4.09053e-05
3.9919e-05
4.61546e-05
6.21334e-05
0.000105432
0.000213094
0.000392533
0.00065148
0.00100032
0.00146524
0.00203328
0.00267387
0.00333691
0.00395556
0.00446574
0.00483233
0.00506288
0.00519509
0.00527976
0.00534886
0.00540918
0.00546141
0.0054916
0.00551292
0.00552583
0.00553427
0.00554112
0.00554682
0.00555072
0.00555181
0.0055496
0.00554422
0.00553569
0.00552448
0.00551055
0.00549566
0.00546757
0.00545354
0.00538781
0.00572133
4.01415e-05
4.02603e-05
4.01603e-05
3.88811e-05
3.77884e-05
3.4462e-05
3.75189e-05
5.43982e-05
8.31023e-05
0.000121418
0.000167746
0.000227183
0.000326076
0.00050478
0.000805313
0.00125574
0.00185686
0.00257424
0.0033455
0.00409183
0.00474578
0.00525199
0.00561419
0.00587227
0.00607288
0.00624332
0.00639564
0.00653409
0.00665975
0.00677319
0.00687528
0.00696743
0.0070512
0.00712777
0.00719781
0.00726074
0.00731854
0.00736488
0.00742236
0.00743681
0.00760534
4.01486e-05
4.0154e-05
4.02207e-05
4.01067e-05
3.95427e-05
3.72617e-05
3.19701e-05
2.45328e-05
1.63986e-05
9.18799e-06
4.4478e-06
3.33909e-06
5.02757e-06
8.26031e-06
1.52191e-05
3.67166e-05
9.53384e-05
0.000225517
0.00046847
0.0008625
0.00143966
0.00214637
0.00288787
0.00360968
0.00427852
0.00487887
0.00540316
0.00585488
0.00624456
0.00658538
0.00689032
0.00717013
0.00743247
0.00768252
0.00792229
0.00815064
0.0083675
0.00856936
0.00876887
0.00894186
0.00910988
4.0096e-05
4.00987e-05
4.01027e-05
4.01162e-05
4.01306e-05
4.00791e-05
3.94539e-05
3.76667e-05
3.47597e-05
3.14289e-05
2.85324e-05
2.64613e-05
2.49805e-05
2.31501e-05
2.04517e-05
1.1567e-05
1.06231e-05
1.23649e-06
0.000103723
5.96966e-06
5.15757e-05
0.0001568
0.000341535
0.000614565
0.000981623
0.00143475
0.00196239
0.00254882
0.00317704
0.00382894
0.00448793
0.00514003
0.00577436
0.00638584
0.00697084
0.00752626
0.00805126
0.00855017
0.00902607
0.00947461
0.00988782
4.0086e-05
4.00924e-05
4.0099e-05
4.01062e-05
4.01106e-05
4.01414e-05
4.02378e-05
4.03394e-05
4.03404e-05
4.01993e-05
3.9969e-05
3.97144e-05
3.94656e-05
3.91804e-05
3.88441e-05
3.81982e-05
3.70126e-05
3.41992e-05
2.92587e-05
1.92067e-05
2.40428e-06
3.82443e-05
3.47543e-07
5.91079e-05
6.55187e-05
7.06241e-05
0.000137827
0.000258551
0.000443856
0.000703379
0.0010528
0.00149757
0.00204262
0.00269127
0.00343992
0.00427606
0.00517713
0.00612996
0.0071015
0.00804995
0.0090628
4.00864e-05
4.00921e-05
4.00958e-05
4.00995e-05
4.01035e-05
4.01058e-05
4.01148e-05
4.01568e-05
4.02481e-05
4.03748e-05
4.05073e-05
4.06246e-05
4.07223e-05
4.08105e-05
4.0885e-05
4.09876e-05
4.10418e-05
4.11238e-05
4.08016e-05
4.00312e-05
3.79606e-05
3.49615e-05
3.02548e-05
2.57762e-05
1.53526e-05
2.03579e-05
3.14444e-05
5.43183e-05
8.47338e-06
7.12551e-05
6.09402e-05
5.80982e-05
0.000137301
0.000283672
0.00052355
0.000885787
0.00139712
0.00209099
0.00297771
0.004004
0.00543268
4.00848e-05
4.0089e-05
4.00909e-05
4.00926e-05
4.00948e-05
4.00975e-05
4.00998e-05
4.0101e-05
4.01052e-05
4.01181e-05
4.01414e-05
4.01728e-05
4.02098e-05
4.02519e-05
4.02978e-05
4.03538e-05
4.04291e-05
4.05331e-05
4.06509e-05
4.07838e-05
4.10353e-05
4.09024e-05
4.03287e-05
3.88771e-05
3.77321e-05
3.56832e-05
3.23483e-05
2.86607e-05
2.33482e-05
1.72254e-05
2.64016e-06
1.52345e-05
2.80085e-05
5.33556e-05
1.16793e-05
3.75053e-05
7.36898e-05
0.000156869
0.000363678
0.000693609
0.00145663
4.00831e-05
4.0085e-05
4.00848e-05
4.00845e-05
4.00848e-05
4.00858e-05
4.00872e-05
4.00887e-05
4.00894e-05
4.00889e-05
4.00874e-05
4.00854e-05
4.00841e-05
4.00838e-05
4.00858e-05
4.00899e-05
4.00968e-05
4.01088e-05
4.01337e-05
4.01681e-05
4.02437e-05
4.03477e-05
4.04939e-05
4.06294e-05
4.08001e-05
4.09816e-05
4.09265e-05
4.02888e-05
3.9174e-05
3.75406e-05
3.63175e-05
3.35478e-05
2.91335e-05
2.30344e-05
1.49572e-05
1.17988e-05
1.52499e-05
2.74414e-05
5.75019e-05
0.000111086
4.36809e-05
4.00802e-05
4.00797e-05
4.00778e-05
4.00762e-05
4.00754e-05
4.00755e-05
4.00761e-05
4.00771e-05
4.00781e-05
4.0079e-05
4.00795e-05
4.00788e-05
4.00775e-05
4.00762e-05
4.00744e-05
4.00717e-05
4.00687e-05
4.00652e-05
4.0062e-05
4.00597e-05
4.0056e-05
4.00592e-05
4.00733e-05
4.01087e-05
4.01591e-05
4.02326e-05
4.03363e-05
4.04602e-05
4.0616e-05
4.07402e-05
4.09352e-05
4.09781e-05
4.06135e-05
3.94472e-05
3.69559e-05
3.29675e-05
2.87565e-05
2.31059e-05
1.07336e-05
5.18782e-06
8.99102e-06
4.00761e-05
4.00736e-05
4.00708e-05
4.0069e-05
4.00681e-05
4.00679e-05
4.00681e-05
4.00687e-05
4.00695e-05
4.00701e-05
4.00706e-05
4.00709e-05
4.00708e-05
4.00709e-05
4.00711e-05
4.00712e-05
4.00711e-05
4.00708e-05
4.00696e-05
4.00676e-05
4.00643e-05
4.00609e-05
4.00573e-05
4.00542e-05
4.00524e-05
4.00525e-05
4.00571e-05
4.00688e-05
4.00945e-05
4.01331e-05
4.02025e-05
4.03112e-05
4.04633e-05
4.06211e-05
4.07578e-05
4.08318e-05
4.05429e-05
3.98915e-05
3.7265e-05
3.3501e-05
2.55814e-05
4.0071e-05
4.00677e-05
4.00653e-05
4.0064e-05
4.00636e-05
4.00636e-05
4.00639e-05
4.00645e-05
4.00651e-05
4.00656e-05
4.00661e-05
4.00665e-05
4.00664e-05
4.00663e-05
4.00664e-05
4.00667e-05
4.00671e-05
4.00675e-05
4.00678e-05
4.00682e-05
4.00677e-05
4.00673e-05
4.00667e-05
4.00658e-05
4.00648e-05
4.00631e-05
4.00609e-05
4.0058e-05
4.00551e-05
4.00532e-05
4.00516e-05
4.00535e-05
4.00656e-05
4.00992e-05
4.01606e-05
4.02666e-05
4.04104e-05
4.06466e-05
4.09077e-05
4.10891e-05
4.0235e-05
4.00658e-05
4.00631e-05
4.00617e-05
4.00614e-05
4.00615e-05
4.00618e-05
4.00622e-05
4.00627e-05
4.00632e-05
4.00637e-05
4.00641e-05
4.00645e-05
4.00647e-05
4.00646e-05
4.00645e-05
4.00645e-05
4.00647e-05
4.00649e-05
4.00651e-05
4.00655e-05
4.00656e-05
4.00655e-05
4.00656e-05
4.00657e-05
4.00658e-05
4.00659e-05
4.0066e-05
4.00659e-05
4.00656e-05
4.0065e-05
4.0064e-05
4.00621e-05
4.00595e-05
4.00569e-05
4.00552e-05
4.00556e-05
4.00607e-05
4.00857e-05
4.01668e-05
4.03157e-05
4.05842e-05
4.00614e-05
4.00603e-05
4.00602e-05
4.00605e-05
4.00608e-05
4.00611e-05
4.00614e-05
4.00617e-05
4.00621e-05
4.00624e-05
4.00628e-05
4.00631e-05
4.00634e-05
4.00637e-05
4.00639e-05
4.00639e-05
4.00638e-05
4.00637e-05
4.00636e-05
4.00637e-05
4.00635e-05
4.00635e-05
4.00637e-05
4.00639e-05
4.00641e-05
4.00644e-05
4.00647e-05
4.00651e-05
4.00654e-05
4.00658e-05
4.00662e-05
4.00666e-05
4.00668e-05
4.00668e-05
4.00664e-05
4.00653e-05
4.00626e-05
4.00576e-05
4.0055e-05
4.00518e-05
4.00833e-05
4.00584e-05
4.00593e-05
4.00598e-05
4.00601e-05
4.00603e-05
4.00603e-05
4.00603e-05
4.00604e-05
4.00605e-05
4.00606e-05
4.00609e-05
4.00611e-05
4.00614e-05
4.00618e-05
4.00621e-05
4.00623e-05
4.00626e-05
4.00628e-05
4.00629e-05
4.0063e-05
4.00632e-05
4.00634e-05
4.00637e-05
4.00641e-05
4.00644e-05
4.00648e-05
4.00652e-05
4.00656e-05
4.0066e-05
4.00665e-05
4.0067e-05
4.00675e-05
4.0068e-05
4.00686e-05
4.00692e-05
4.00698e-05
4.00704e-05
4.00705e-05
4.00698e-05
4.00685e-05
4.0064e-05
4.00566e-05
4.00591e-05
4.00596e-05
4.00596e-05
4.00594e-05
4.00592e-05
4.00589e-05
4.00587e-05
4.00586e-05
4.00585e-05
4.00585e-05
4.00586e-05
4.00586e-05
4.00587e-05
4.00588e-05
4.00588e-05
4.00588e-05
4.00588e-05
4.00587e-05
4.00588e-05
4.00588e-05
4.00588e-05
4.00589e-05
4.0059e-05
4.00592e-05
4.00594e-05
4.00597e-05
4.00599e-05
4.00602e-05
4.00605e-05
4.00609e-05
4.00613e-05
4.00617e-05
4.00622e-05
4.00627e-05
4.00632e-05
4.00638e-05
4.00645e-05
4.00651e-05
4.00661e-05
4.00665e-05
4.00554e-05
4.00583e-05
4.0059e-05
4.00589e-05
4.00587e-05
4.00584e-05
4.00582e-05
4.00581e-05
4.0058e-05
4.0058e-05
4.0058e-05
4.0058e-05
4.00581e-05
4.00581e-05
4.00582e-05
4.00584e-05
4.00585e-05
4.00587e-05
4.00589e-05
4.00591e-05
4.00593e-05
4.00595e-05
4.00597e-05
4.00598e-05
4.00599e-05
4.00599e-05
4.006e-05
4.006e-05
4.006e-05
4.006e-05
4.006e-05
4.006e-05
4.006e-05
4.00599e-05
4.00599e-05
4.00599e-05
4.00598e-05
4.00598e-05
4.00598e-05
4.00597e-05
4.00601e-05
4.00544e-05
4.00574e-05
4.00578e-05
4.00575e-05
4.0057e-05
4.00567e-05
4.00564e-05
4.00562e-05
4.00561e-05
4.00561e-05
4.00561e-05
4.00562e-05
4.00562e-05
4.00563e-05
4.00564e-05
4.00566e-05
4.00567e-05
4.00569e-05
4.0057e-05
4.00572e-05
4.00575e-05
4.00577e-05
4.00578e-05
4.0058e-05
4.00581e-05
4.00582e-05
4.00583e-05
4.00584e-05
4.00585e-05
4.00585e-05
4.00586e-05
4.00586e-05
4.00586e-05
4.00586e-05
4.00586e-05
4.00586e-05
4.00585e-05
4.00585e-05
4.00584e-05
4.00582e-05
4.00583e-05
4.00539e-05
4.00566e-05
4.00567e-05
4.00561e-05
4.00556e-05
4.00552e-05
4.00549e-05
4.00548e-05
4.00547e-05
4.00547e-05
4.00548e-05
4.00549e-05
4.0055e-05
4.00551e-05
4.00552e-05
4.00553e-05
4.00555e-05
4.00557e-05
4.00558e-05
4.0056e-05
4.00562e-05
4.00564e-05
4.00565e-05
4.00566e-05
4.00568e-05
4.00568e-05
4.00569e-05
4.0057e-05
4.0057e-05
4.0057e-05
4.00571e-05
4.00571e-05
4.00571e-05
4.00571e-05
4.0057e-05
4.0057e-05
4.0057e-05
4.00569e-05
4.00569e-05
4.00568e-05
4.00568e-05
4.00534e-05
4.00556e-05
4.00554e-05
4.00547e-05
4.00542e-05
4.00538e-05
4.00536e-05
4.00535e-05
4.00535e-05
4.00535e-05
4.00536e-05
4.00538e-05
4.00539e-05
4.0054e-05
4.00542e-05
4.00544e-05
4.00546e-05
4.00547e-05
4.00549e-05
4.00551e-05
4.00553e-05
4.00555e-05
4.00557e-05
4.00558e-05
4.00559e-05
4.0056e-05
4.00561e-05
4.00562e-05
4.00562e-05
4.00562e-05
4.00563e-05
4.00563e-05
4.00563e-05
4.00563e-05
4.00563e-05
4.00563e-05
4.00562e-05
4.00562e-05
4.00562e-05
4.00561e-05
4.00561e-05
4.0053e-05
4.00545e-05
4.00541e-05
4.00534e-05
4.00529e-05
4.00526e-05
4.00524e-05
4.00524e-05
4.00524e-05
4.00525e-05
4.00527e-05
4.00528e-05
4.0053e-05
4.00532e-05
4.00534e-05
4.00536e-05
4.00538e-05
4.0054e-05
4.00542e-05
4.00545e-05
4.00547e-05
4.00549e-05
4.0055e-05
4.00552e-05
4.00553e-05
4.00555e-05
4.00556e-05
4.00557e-05
4.00557e-05
4.00558e-05
4.00559e-05
4.00559e-05
4.00559e-05
4.0056e-05
4.0056e-05
4.0056e-05
4.0056e-05
4.0056e-05
4.0056e-05
4.0056e-05
4.00559e-05
4.00523e-05
4.00534e-05
4.00528e-05
4.00521e-05
4.00516e-05
4.00514e-05
4.00513e-05
4.00514e-05
4.00515e-05
4.00517e-05
4.00519e-05
4.00521e-05
4.00523e-05
4.00525e-05
4.00528e-05
4.0053e-05
4.00532e-05
4.00535e-05
4.00537e-05
4.0054e-05
4.00542e-05
4.00544e-05
4.00546e-05
4.00548e-05
4.0055e-05
4.00551e-05
4.00553e-05
4.00554e-05
4.00555e-05
4.00556e-05
4.00556e-05
4.00557e-05
4.00558e-05
4.00558e-05
4.00559e-05
4.00559e-05
4.00559e-05
4.00559e-05
4.00559e-05
4.0056e-05
4.00559e-05
4.00515e-05
4.00522e-05
4.00515e-05
4.00509e-05
4.00505e-05
4.00503e-05
4.00504e-05
4.00505e-05
4.00507e-05
4.00509e-05
4.00511e-05
4.00514e-05
4.00517e-05
4.00519e-05
4.00522e-05
4.00525e-05
4.00528e-05
4.0053e-05
4.00533e-05
4.00535e-05
4.00538e-05
4.00541e-05
4.00543e-05
4.00545e-05
4.00547e-05
4.00549e-05
4.0055e-05
4.00552e-05
4.00553e-05
4.00554e-05
4.00555e-05
4.00556e-05
4.00557e-05
4.00558e-05
4.00559e-05
4.00559e-05
4.0056e-05
4.0056e-05
4.00561e-05
4.00561e-05
4.00561e-05
4.00506e-05
4.00509e-05
4.00502e-05
4.00497e-05
4.00494e-05
4.00493e-05
4.00494e-05
4.00496e-05
4.00499e-05
4.00502e-05
4.00505e-05
4.00508e-05
4.00511e-05
4.00514e-05
4.00517e-05
4.0052e-05
4.00523e-05
4.00526e-05
4.00529e-05
4.00532e-05
4.00535e-05
4.00538e-05
4.0054e-05
4.00543e-05
4.00545e-05
4.00547e-05
4.00549e-05
4.00551e-05
4.00552e-05
4.00554e-05
4.00555e-05
4.00556e-05
4.00557e-05
4.00559e-05
4.00559e-05
4.0056e-05
4.00561e-05
4.00562e-05
4.00562e-05
4.00563e-05
4.00563e-05
4.00495e-05
4.00496e-05
4.0049e-05
4.00485e-05
4.00483e-05
4.00484e-05
4.00485e-05
4.00488e-05
4.00491e-05
4.00495e-05
4.00498e-05
4.00502e-05
4.00505e-05
4.00509e-05
4.00512e-05
4.00516e-05
4.00519e-05
4.00522e-05
4.00526e-05
4.00529e-05
4.00532e-05
4.00535e-05
4.00538e-05
4.00541e-05
4.00543e-05
4.00545e-05
4.00548e-05
4.0055e-05
4.00552e-05
4.00553e-05
4.00555e-05
4.00556e-05
4.00558e-05
4.00559e-05
4.0056e-05
4.00561e-05
4.00562e-05
4.00563e-05
4.00564e-05
4.00565e-05
4.00565e-05
4.00484e-05
4.00484e-05
4.00478e-05
4.00474e-05
4.00473e-05
4.00474e-05
4.00477e-05
4.0048e-05
4.00484e-05
4.00488e-05
4.00492e-05
4.00496e-05
4.005e-05
4.00504e-05
4.00507e-05
4.00511e-05
4.00515e-05
4.00519e-05
4.00522e-05
4.00526e-05
4.00529e-05
4.00532e-05
4.00535e-05
4.00538e-05
4.00541e-05
4.00544e-05
4.00546e-05
4.00548e-05
4.0055e-05
4.00552e-05
4.00554e-05
4.00556e-05
4.00558e-05
4.00559e-05
4.00561e-05
4.00562e-05
4.00563e-05
4.00564e-05
4.00565e-05
4.00567e-05
4.00567e-05
4.00472e-05
4.00471e-05
4.00465e-05
4.00463e-05
4.00463e-05
4.00465e-05
4.00468e-05
4.00472e-05
4.00476e-05
4.0048e-05
4.00485e-05
4.00489e-05
4.00494e-05
4.00498e-05
4.00502e-05
4.00506e-05
4.0051e-05
4.00514e-05
4.00518e-05
4.00522e-05
4.00525e-05
4.00529e-05
4.00532e-05
4.00536e-05
4.00538e-05
4.00541e-05
4.00544e-05
4.00546e-05
4.00549e-05
4.00551e-05
4.00553e-05
4.00555e-05
4.00557e-05
4.00559e-05
4.0056e-05
4.00562e-05
4.00563e-05
4.00565e-05
4.00566e-05
4.00567e-05
4.00567e-05
4.00459e-05
4.00457e-05
4.00453e-05
4.00451e-05
4.00452e-05
4.00455e-05
4.00459e-05
4.00463e-05
4.00468e-05
4.00472e-05
4.00477e-05
4.00482e-05
4.00487e-05
4.00491e-05
4.00496e-05
4.005e-05
4.00505e-05
4.00509e-05
4.00513e-05
4.00517e-05
4.00521e-05
4.00525e-05
4.00528e-05
4.00532e-05
4.00535e-05
4.00538e-05
4.00541e-05
4.00543e-05
4.00546e-05
4.00548e-05
4.00551e-05
4.00553e-05
4.00555e-05
4.00557e-05
4.00558e-05
4.0056e-05
4.00562e-05
4.00563e-05
4.00565e-05
4.00566e-05
4.00567e-05
4.00446e-05
4.00444e-05
4.0044e-05
4.0044e-05
4.00441e-05
4.00445e-05
4.00449e-05
4.00454e-05
4.00459e-05
4.00464e-05
4.00469e-05
4.00474e-05
4.00479e-05
4.00484e-05
4.00489e-05
4.00493e-05
4.00498e-05
4.00502e-05
4.00507e-05
4.00511e-05
4.00515e-05
4.00519e-05
4.00523e-05
4.00526e-05
4.0053e-05
4.00533e-05
4.00536e-05
4.00539e-05
4.00542e-05
4.00544e-05
4.00547e-05
4.00549e-05
4.00551e-05
4.00553e-05
4.00555e-05
4.00557e-05
4.00559e-05
4.0056e-05
4.00562e-05
4.00564e-05
4.00564e-05
4.00432e-05
4.0043e-05
4.00427e-05
4.00427e-05
4.0043e-05
4.00434e-05
4.00438e-05
4.00443e-05
4.00449e-05
4.00454e-05
4.00459e-05
4.00464e-05
4.0047e-05
4.00475e-05
4.0048e-05
4.00485e-05
4.0049e-05
4.00494e-05
4.00499e-05
4.00503e-05
4.00508e-05
4.00512e-05
4.00516e-05
4.0052e-05
4.00523e-05
4.00527e-05
4.0053e-05
4.00533e-05
4.00536e-05
4.00538e-05
4.00541e-05
4.00543e-05
4.00545e-05
4.00548e-05
4.0055e-05
4.00552e-05
4.00553e-05
4.00555e-05
4.00557e-05
4.00559e-05
4.00559e-05
4.00418e-05
4.00415e-05
4.00414e-05
4.00415e-05
4.00418e-05
4.00422e-05
4.00427e-05
4.00432e-05
4.00437e-05
4.00443e-05
4.00448e-05
4.00453e-05
4.00459e-05
4.00464e-05
4.00469e-05
4.00474e-05
4.00479e-05
4.00484e-05
4.00489e-05
4.00494e-05
4.00498e-05
4.00503e-05
4.00507e-05
4.00511e-05
4.00514e-05
4.00518e-05
4.00521e-05
4.00524e-05
4.00527e-05
4.0053e-05
4.00533e-05
4.00535e-05
4.00538e-05
4.0054e-05
4.00542e-05
4.00544e-05
4.00546e-05
4.00548e-05
4.00549e-05
4.00551e-05
4.00552e-05
4.00402e-05
4.004e-05
4.00399e-05
4.00401e-05
4.00404e-05
4.00408e-05
4.00413e-05
4.00419e-05
4.00424e-05
4.00429e-05
4.00435e-05
4.00441e-05
4.00446e-05
4.00451e-05
4.00457e-05
4.00462e-05
4.00467e-05
4.00472e-05
4.00477e-05
4.00482e-05
4.00487e-05
4.00491e-05
4.00495e-05
4.00499e-05
4.00503e-05
4.00507e-05
4.0051e-05
4.00513e-05
4.00517e-05
4.00519e-05
4.00522e-05
4.00525e-05
4.00527e-05
4.00529e-05
4.00532e-05
4.00534e-05
4.00535e-05
4.00537e-05
4.00539e-05
4.00541e-05
4.00542e-05
4.00386e-05
4.00385e-05
4.00384e-05
4.00386e-05
4.0039e-05
4.00394e-05
4.00398e-05
4.00404e-05
4.00409e-05
4.00414e-05
4.0042e-05
4.00425e-05
4.00431e-05
4.00437e-05
4.00442e-05
4.00447e-05
4.00453e-05
4.00458e-05
4.00463e-05
4.00468e-05
4.00473e-05
4.00477e-05
4.00482e-05
4.00486e-05
4.0049e-05
4.00493e-05
4.00497e-05
4.005e-05
4.00503e-05
4.00506e-05
4.00509e-05
4.00511e-05
4.00514e-05
4.00516e-05
4.00518e-05
4.0052e-05
4.00522e-05
4.00524e-05
4.00526e-05
4.00528e-05
4.00529e-05
4.0037e-05
4.00368e-05
4.00368e-05
4.0037e-05
4.00373e-05
4.00377e-05
4.00382e-05
4.00387e-05
4.00392e-05
4.00397e-05
4.00403e-05
4.00408e-05
4.00414e-05
4.00419e-05
4.00425e-05
4.0043e-05
4.00436e-05
4.00441e-05
4.00446e-05
4.00451e-05
4.00456e-05
4.00461e-05
4.00465e-05
4.00469e-05
4.00473e-05
4.00477e-05
4.00481e-05
4.00484e-05
4.00487e-05
4.0049e-05
4.00493e-05
4.00495e-05
4.00498e-05
4.005e-05
4.00502e-05
4.00504e-05
4.00506e-05
4.00508e-05
4.0051e-05
4.00511e-05
4.00512e-05
4.00352e-05
4.00351e-05
4.00351e-05
4.00353e-05
4.00356e-05
4.00359e-05
4.00363e-05
4.00368e-05
4.00372e-05
4.00378e-05
4.00383e-05
4.00388e-05
4.00394e-05
4.004e-05
4.00405e-05
4.00411e-05
4.00416e-05
4.00422e-05
4.00427e-05
4.00432e-05
4.00437e-05
4.00442e-05
4.00446e-05
4.0045e-05
4.00454e-05
4.00458e-05
4.00461e-05
4.00465e-05
4.00468e-05
4.00471e-05
4.00474e-05
4.00476e-05
4.00479e-05
4.00481e-05
4.00483e-05
4.00485e-05
4.00487e-05
4.00489e-05
4.0049e-05
4.00492e-05
4.00493e-05
4.00333e-05
4.00332e-05
4.00333e-05
4.00334e-05
4.00337e-05
4.00339e-05
4.00343e-05
4.00347e-05
4.00351e-05
4.00356e-05
4.00361e-05
4.00366e-05
4.00372e-05
4.00377e-05
4.00383e-05
4.00389e-05
4.00394e-05
4.004e-05
4.00405e-05
4.0041e-05
4.00415e-05
4.00419e-05
4.00424e-05
4.00428e-05
4.00432e-05
4.00436e-05
4.00439e-05
4.00443e-05
4.00446e-05
4.00449e-05
4.00451e-05
4.00454e-05
4.00456e-05
4.00459e-05
4.00461e-05
4.00463e-05
4.00464e-05
4.00466e-05
4.00467e-05
4.00469e-05
4.0047e-05
4.00313e-05
4.00313e-05
4.00313e-05
4.00314e-05
4.00315e-05
4.00317e-05
4.0032e-05
4.00324e-05
4.00327e-05
4.00332e-05
4.00337e-05
4.00342e-05
4.00347e-05
4.00353e-05
4.00358e-05
4.00364e-05
4.00369e-05
4.00375e-05
4.0038e-05
4.00385e-05
4.0039e-05
4.00394e-05
4.00399e-05
4.00403e-05
4.00407e-05
4.00411e-05
4.00414e-05
4.00417e-05
4.0042e-05
4.00423e-05
4.00426e-05
4.00428e-05
4.00431e-05
4.00433e-05
4.00435e-05
4.00437e-05
4.00438e-05
4.0044e-05
4.00441e-05
4.00443e-05
4.00444e-05
4.00292e-05
4.00291e-05
4.00291e-05
4.00291e-05
4.00292e-05
4.00293e-05
4.00295e-05
4.00298e-05
4.00302e-05
4.00306e-05
4.0031e-05
4.00315e-05
4.0032e-05
4.00325e-05
4.00331e-05
4.00336e-05
4.00341e-05
4.00347e-05
4.00352e-05
4.00357e-05
4.00361e-05
4.00366e-05
4.0037e-05
4.00374e-05
4.00378e-05
4.00382e-05
4.00385e-05
4.00388e-05
4.00391e-05
4.00394e-05
4.00397e-05
4.00399e-05
4.00401e-05
4.00403e-05
4.00405e-05
4.00407e-05
4.00408e-05
4.0041e-05
4.00411e-05
4.00412e-05
4.00413e-05
4.00269e-05
4.00269e-05
4.00268e-05
4.00267e-05
4.00267e-05
4.00267e-05
4.00269e-05
4.00271e-05
4.00274e-05
4.00277e-05
4.00281e-05
4.00286e-05
4.0029e-05
4.00295e-05
4.003e-05
4.00305e-05
4.0031e-05
4.00315e-05
4.0032e-05
4.00325e-05
4.00329e-05
4.00334e-05
4.00338e-05
4.00342e-05
4.00346e-05
4.00349e-05
4.00352e-05
4.00355e-05
4.00358e-05
4.00361e-05
4.00363e-05
4.00365e-05
4.00367e-05
4.00369e-05
4.00371e-05
4.00372e-05
4.00374e-05
4.00375e-05
4.00376e-05
4.00377e-05
4.00378e-05
4.00245e-05
4.00244e-05
4.00242e-05
4.00241e-05
4.0024e-05
4.00239e-05
4.0024e-05
4.00242e-05
4.00244e-05
4.00247e-05
4.0025e-05
4.00254e-05
4.00258e-05
4.00262e-05
4.00267e-05
4.00271e-05
4.00276e-05
4.0028e-05
4.00285e-05
4.00289e-05
4.00294e-05
4.00298e-05
4.00301e-05
4.00305e-05
4.00309e-05
4.00312e-05
4.00315e-05
4.00318e-05
4.0032e-05
4.00323e-05
4.00325e-05
4.00327e-05
4.00328e-05
4.0033e-05
4.00331e-05
4.00333e-05
4.00334e-05
4.00335e-05
4.00336e-05
4.00336e-05
4.00337e-05
4.00219e-05
4.00218e-05
4.00215e-05
4.00213e-05
4.00211e-05
4.0021e-05
4.0021e-05
4.0021e-05
4.00212e-05
4.00214e-05
4.00216e-05
4.00219e-05
4.00222e-05
4.00226e-05
4.0023e-05
4.00234e-05
4.00238e-05
4.00242e-05
4.00245e-05
4.00249e-05
4.00253e-05
4.00257e-05
4.0026e-05
4.00263e-05
4.00266e-05
4.00269e-05
4.00272e-05
4.00274e-05
4.00277e-05
4.00279e-05
4.00281e-05
4.00282e-05
4.00284e-05
4.00286e-05
4.00287e-05
4.00288e-05
4.00289e-05
4.0029e-05
4.00291e-05
4.00292e-05
4.00292e-05
4.00192e-05
4.0019e-05
4.00186e-05
4.00183e-05
4.00181e-05
4.00179e-05
4.00178e-05
4.00178e-05
4.00178e-05
4.00179e-05
4.0018e-05
4.00182e-05
4.00184e-05
4.00187e-05
4.00189e-05
4.00192e-05
4.00195e-05
4.00198e-05
4.00201e-05
4.00204e-05
4.00207e-05
4.0021e-05
4.00213e-05
4.00216e-05
4.00218e-05
4.00221e-05
4.00223e-05
4.00225e-05
4.00227e-05
4.00229e-05
4.0023e-05
4.00231e-05
4.00232e-05
4.00233e-05
4.00234e-05
4.00235e-05
4.00235e-05
4.00235e-05
4.00235e-05
4.00235e-05
4.00235e-05
4.00162e-05
4.00159e-05
4.00156e-05
4.00152e-05
4.00149e-05
4.00147e-05
4.00145e-05
4.00144e-05
4.00143e-05
4.00143e-05
4.00143e-05
4.00143e-05
4.00144e-05
4.00145e-05
4.00146e-05
4.00147e-05
4.00149e-05
4.0015e-05
4.00152e-05
4.00154e-05
4.00156e-05
4.00157e-05
4.00159e-05
4.00161e-05
4.00162e-05
4.00164e-05
4.00165e-05
4.00167e-05
4.00168e-05
4.00169e-05
4.0017e-05
4.00171e-05
4.00172e-05
4.00173e-05
4.00174e-05
4.00175e-05
4.00176e-05
4.00176e-05
4.00177e-05
4.00178e-05
4.00178e-05
4.0013e-05
4.00127e-05
4.00123e-05
4.0012e-05
4.00117e-05
4.00114e-05
4.00112e-05
4.0011e-05
4.00108e-05
4.00106e-05
4.00105e-05
4.00103e-05
4.00102e-05
4.00101e-05
4.001e-05
4.00099e-05
4.00099e-05
4.00099e-05
4.00099e-05
4.00099e-05
4.00099e-05
4.001e-05
4.001e-05
4.00101e-05
4.00102e-05
4.00103e-05
4.00104e-05
4.00105e-05
4.00106e-05
4.00106e-05
4.00107e-05
4.00107e-05
4.00107e-05
4.00107e-05
4.00107e-05
4.00106e-05
4.00105e-05
4.00105e-05
4.00104e-05
4.00104e-05
4.00103e-05
4.00096e-05
4.00093e-05
4.0009e-05
4.00087e-05
4.00084e-05
4.00081e-05
4.00079e-05
4.00076e-05
4.00073e-05
4.00071e-05
4.00068e-05
4.00065e-05
4.00062e-05
4.00058e-05
4.00055e-05
4.00053e-05
4.0005e-05
4.00049e-05
4.00047e-05
4.00045e-05
4.00044e-05
4.00043e-05
4.00043e-05
4.00043e-05
4.00043e-05
4.00043e-05
4.00044e-05
4.00044e-05
4.00045e-05
4.00045e-05
4.00046e-05
4.00046e-05
4.00046e-05
4.00046e-05
4.00046e-05
4.00046e-05
4.00046e-05
4.00046e-05
4.00046e-05
4.00047e-05
4.00047e-05
4.0006e-05
4.00058e-05
4.00055e-05
4.00053e-05
4.00051e-05
4.00049e-05
4.00047e-05
4.00044e-05
4.00042e-05
4.00038e-05
4.00034e-05
4.0003e-05
4.00025e-05
4.00022e-05
4.0002e-05
4.0002e-05
4.00021e-05
4.00023e-05
4.00025e-05
4.00028e-05
4.0003e-05
4.00032e-05
4.00034e-05
4.00036e-05
4.00038e-05
4.0004e-05
4.00042e-05
4.00043e-05
4.00045e-05
4.00046e-05
4.00047e-05
4.00048e-05
4.00049e-05
4.0005e-05
4.0005e-05
4.00051e-05
4.00051e-05
4.00051e-05
4.00052e-05
4.00052e-05
4.00052e-05
4.0002e-05
4.0002e-05
4.00019e-05
4.00018e-05
4.00018e-05
4.00017e-05
4.00016e-05
4.00015e-05
4.00014e-05
4.00012e-05
4.0001e-05
4.00006e-05
4.00005e-05
4.00007e-05
4.00011e-05
4.00017e-05
4.00024e-05
4.00033e-05
4.00043e-05
4.00055e-05
4.00067e-05
4.0008e-05
4.00093e-05
4.00107e-05
4.00122e-05
4.00137e-05
4.00152e-05
4.00166e-05
4.0018e-05
4.00193e-05
4.00204e-05
4.00215e-05
4.00226e-05
4.00235e-05
4.00244e-05
4.00252e-05
4.00259e-05
4.00266e-05
4.00272e-05
4.00279e-05
4.00284e-05
0.00417057
0.00570213
0.00642433
0.00680853
0.00700482
0.00706414
0.00700602
0.00683541
0.00655434
0.00615484
0.00564452
0.00502715
0.0043103
0.00349944
0.00262948
0.00176632
0.00095477
0.000368045
1.82174e-05
0.000101837
1.08379e-05
1.20978e-05
2.93868e-05
4.35455e-05
4.6207e-05
4.30068e-05
4.00129e-05
3.9115e-05
3.95212e-05
4.00728e-05
4.02986e-05
4.02581e-05
4.01517e-05
4.00868e-05
4.00702e-05
4.00741e-05
4.00775e-05
4.00743e-05
4.00673e-05
4.00606e-05
4.00565e-05
4.00549e-05
4.00548e-05
4.00552e-05
4.00557e-05
4.00558e-05
4.00566e-05
4.00572e-05
4.00578e-05
4.00584e-05
4.00589e-05
4.00592e-05
4.00594e-05
4.00595e-05
4.00593e-05
4.0059e-05
4.00584e-05
4.00582e-05
4.00573e-05
4.00564e-05
4.00554e-05
4.00545e-05
4.00535e-05
4.00525e-05
4.00516e-05
4.00508e-05
4.00502e-05
4.00497e-05
4.00495e-05
4.00495e-05
4.00498e-05
4.00503e-05
4.00511e-05
4.00523e-05
0.00593256
0.00747265
0.00829711
0.00870175
0.00889733
0.00897546
0.0089601
0.008849
0.00864005
0.00832968
0.00791578
0.00739466
0.00676348
0.00601794
0.00515568
0.00419323
0.0031405
0.00209639
0.00113607
0.000467393
6.92516e-05
0.000127774
2.80001e-05
2.5707e-06
2.26124e-05
3.77571e-05
4.4488e-05
4.36927e-05
4.11587e-05
3.97076e-05
3.94623e-05
3.97644e-05
4.00953e-05
4.02345e-05
4.02132e-05
4.01373e-05
4.00788e-05
4.00559e-05
4.0056e-05
4.00615e-05
4.00633e-05
4.00609e-05
4.00573e-05
4.0055e-05
4.00546e-05
4.00556e-05
4.00576e-05
4.00593e-05
4.00603e-05
4.0061e-05
4.00617e-05
4.00622e-05
4.00626e-05
4.00628e-05
4.00627e-05
4.00625e-05
4.00619e-05
4.00611e-05
4.00599e-05
4.00588e-05
4.00576e-05
4.00566e-05
4.00555e-05
4.00544e-05
4.00533e-05
4.00524e-05
4.00515e-05
4.00508e-05
4.00503e-05
4.005e-05
4.00501e-05
4.00503e-05
4.00509e-05
4.00519e-05
0.00738
0.0085975
0.00948235
0.00996158
0.0102348
0.0104002
0.0104794
0.0104653
0.0103629
0.0101759
0.00990153
0.00953158
0.00905703
0.00846976
0.00775965
0.00692272
0.00594242
0.00484533
0.00365453
0.00245347
0.0013747
0.000582111
9.772e-05
1.39288e-05
2.146e-05
1.3956e-05
1.92166e-05
3.02251e-05
4.12517e-05
4.49327e-05
4.3066e-05
4.07265e-05
3.9562e-05
3.94518e-05
3.97991e-05
4.01159e-05
4.02274e-05
4.01861e-05
4.01048e-05
4.00515e-05
4.00373e-05
4.0045e-05
4.00557e-05
4.00609e-05
4.00604e-05
4.00585e-05
4.00582e-05
4.00595e-05
4.00614e-05
4.00631e-05
4.00645e-05
4.00654e-05
4.00659e-05
4.00661e-05
4.00661e-05
4.00659e-05
4.00655e-05
4.00644e-05
4.0063e-05
4.00616e-05
4.00603e-05
4.0059e-05
4.00578e-05
4.00566e-05
4.00554e-05
4.00543e-05
4.00532e-05
4.00523e-05
4.00515e-05
4.00509e-05
4.00506e-05
4.00506e-05
4.00509e-05
4.00516e-05
0.00899006
0.00999933
0.0105382
0.0107473
0.0110121
0.0112515
0.0114184
0.0114866
0.0114977
0.0114582
0.011357
0.0111761
0.0109022
0.0105265
0.0100386
0.00942894
0.0086722
0.00777012
0.00671631
0.00551266
0.00420526
0.00288631
0.00167782
0.000791882
0.000214628
0.000229298
8.1467e-05
1.26621e-06
1.94254e-05
2.72799e-05
3.72914e-05
4.41788e-05
4.45692e-05
4.22583e-05
4.02144e-05
3.94073e-05
3.94865e-05
3.98738e-05
4.01564e-05
4.02276e-05
4.01695e-05
4.00884e-05
4.004e-05
4.00303e-05
4.00411e-05
4.00545e-05
4.00631e-05
4.00663e-05
4.00662e-05
4.00655e-05
4.00655e-05
4.00666e-05
4.00679e-05
4.00689e-05
4.00694e-05
4.00693e-05
4.00689e-05
4.0068e-05
4.00666e-05
4.00649e-05
4.00633e-05
4.00618e-05
4.00605e-05
4.00591e-05
4.00578e-05
4.00565e-05
4.00553e-05
4.00541e-05
4.00531e-05
4.00523e-05
4.00516e-05
4.00513e-05
4.00513e-05
4.00515e-05
0.010078
0.0109783
0.0115896
0.0119009
0.0120341
0.0120854
0.012089
0.0120111
0.0120436
0.0121067
0.0121492
0.0121332
0.0120528
0.0119053
0.0116761
0.0113478
0.0108834
0.0102805
0.00953199
0.00861231
0.00751265
0.00624205
0.00484523
0.00341783
0.00209422
0.0010584
0.000367619
5.09616e-05
0.000142407
3.28409e-05
1.3744e-05
9.51318e-06
2.87176e-05
3.91997e-05
4.38796e-05
4.36378e-05
4.15643e-05
3.99382e-05
3.93173e-05
3.94848e-05
3.98822e-05
4.015e-05
4.02172e-05
4.01636e-05
4.00864e-05
4.00387e-05
4.00293e-05
4.00426e-05
4.00601e-05
4.00712e-05
4.00746e-05
4.00735e-05
4.00715e-05
4.00706e-05
4.00707e-05
4.00712e-05
4.00717e-05
4.00716e-05
4.00707e-05
4.00691e-05
4.00671e-05
4.00652e-05
4.00636e-05
4.00621e-05
4.00606e-05
4.00592e-05
4.00578e-05
4.00564e-05
4.00552e-05
4.0054e-05
4.00531e-05
4.00524e-05
4.00521e-05
4.00518e-05
0.0104288
0.0109666
0.0114735
0.0119204
0.0122804
0.0125347
0.012689
0.0127382
0.0127351
0.012705
0.0126522
0.0125526
0.0125
0.0124944
0.0124804
0.0124103
0.0122363
0.0119726
0.0115909
0.011062
0.0103593
0.00946125
0.00835826
0.00705834
0.0056074
0.00409466
0.00265963
0.00147901
0.000658599
0.000126697
2.20394e-05
2.76259e-05
7.3365e-06
3.79386e-06
2.0913e-05
3.35709e-05
4.26143e-05
4.46655e-05
4.3467e-05
4.13158e-05
3.9718e-05
3.92248e-05
3.94506e-05
3.98577e-05
4.01327e-05
4.02121e-05
4.01675e-05
4.00935e-05
4.0046e-05
4.00356e-05
4.00477e-05
4.00648e-05
4.00765e-05
4.00807e-05
4.008e-05
4.00773e-05
4.00751e-05
4.00739e-05
4.00733e-05
4.00726e-05
4.00713e-05
4.00695e-05
4.00676e-05
4.00658e-05
4.0064e-05
4.00623e-05
4.00607e-05
4.00591e-05
4.00576e-05
4.00563e-05
4.00551e-05
4.0054e-05
4.00534e-05
4.00525e-05
0.00926837
0.00938885
0.00960318
0.00994984
0.0104117
0.01094
0.0114669
0.0119397
0.0123277
0.0126202
0.012819
0.0129196
0.0129466
0.012928
0.0128743
0.0127679
0.0126799
0.0126369
0.0125725
0.0124226
0.0121508
0.0117262
0.0111175
0.0102954
0.00924447
0.00796432
0.0065014
0.00493519
0.00341259
0.00204957
0.00103989
0.00037217
0.000336133
0.000153667
1.98335e-05
1.06377e-05
9.82916e-06
2.23473e-05
3.62932e-05
4.38157e-05
4.53278e-05
4.36352e-05
4.12281e-05
3.96671e-05
3.92078e-05
3.94294e-05
3.98335e-05
4.01238e-05
4.0225e-05
4.01954e-05
4.01234e-05
4.00675e-05
4.00455e-05
4.00494e-05
4.00637e-05
4.00765e-05
4.0083e-05
4.00838e-05
4.00815e-05
4.00783e-05
4.00753e-05
4.00729e-05
4.00709e-05
4.00694e-05
4.00679e-05
4.00663e-05
4.00646e-05
4.00627e-05
4.00608e-05
4.0059e-05
4.00575e-05
4.00561e-05