/*--------------------------------*- C++ -*----------------------------------*\
| =========                 |                                                 |
| \\      /  F ield         | OpenFOAM: The Open Source CFD Toolbox           |
|  \\    /   O peration     | Version:  2312                                  |
|   \\  /    A nd           | Website:  www.openfoam.com                      |
|    \\/     M anipulation  |                                                 |
\*---------------------------------------------------------------------------*/
FoamFile
{
    version     2.0;
    format      ascii;
    arch        "LSB;label=32;scalar=64";
    class       volScalarField;
    location    "150";
    object      p;
}
// * * * * * * * * * * * * * * * * * * * * * * * * * * * * * * * * * * * * * //

dimensions      [0 2 -2 0 0 0 0];

internalField   nonuniform List<scalar> 
11040
(
-433.377
-799.422
-825.548
-732.822
-692.499
-695.68
-696.211
-678.983
-643.552
-596.595
-546
-498.752
-460.692
-431.603
-407.804
-386.162
-365.202
-344.366
-323.387
-301.897
-279.622
-256.924
-235.073
-215.299
-197.233
-180.053
-163.573
-147.69
-132.297
-117.292
-102.613
-88.2308
-74.1399
-60.3632
-46.9743
-34.1296
-22.0945
-10.8955
-1.18111
7.82527
12.6563
-230.7
-489.521
-606.091
-641.824
-667.915
-690.935
-697.866
-684.941
-651.308
-604.926
-554.488
-506.13
-466.1
-435.256
-410.298
-387.975
-366.593
-345.476
-324.307
-302.701
-280.379
-257.716
-235.875
-216.033
-197.89
-180.66
-164.144
-148.233
-132.818
-117.797
-103.104
-88.7103
-74.6076
-60.8155
-47.407
-34.534
-22.4605
-11.1994
-1.45302
7.73688
11.5606
-115.019
-334.097
-502.905
-585.785
-622.333
-648.422
-667.659
-668.972
-645.168
-603.893
-555.641
-508.119
-467.735
-436.179
-410.788
-388.336
-366.932
-345.791
-324.586
-302.952
-280.639
-258.045
-236.246
-216.354
-198.166
-180.927
-164.408
-148.495
-133.082
-118.066
-103.379
-88.9926
-74.8971
-61.1097
-47.7017
-34.8212
-22.7306
-11.4302
-1.67328
7.77231
11.7278
-51.0374
-214.079
-376.636
-485.222
-543.153
-580.137
-607.56
-619.524
-609.915
-581.834
-543.307
-501.931
-464.239
-433.289
-407.959
-385.672
-364.577
-343.807
-323.004
-301.803
-279.923
-257.762
-236.274
-216.475
-198.309
-181.1
-164.6
-148.703
-133.308
-118.313
-103.652
-89.2917
-75.2231
-61.4592
-48.069
-35.1959
-23.098
-11.7658
-1.97474
7.71897
12.105
-13.6446
-132.625
-265.765
-379.835
-458.761
-511.331
-547.481
-567.816
-569.3
-552.677
-523.582
-488.988
-455.224
-426.039
-401.559
-379.993
-359.657
-339.627
-319.508
-298.954
-277.689
-256.17
-235.242
-215.739
-197.759
-180.741
-164.413
-148.664
-133.397
-118.514
-103.95
-89.6747
-75.6804
-61.9795
-48.64
-35.8013
-23.713
-12.3587
-2.50839
7.41208
12.1213
5.89678
-81.5491
-184.503
-287.829
-373.385
-436.587
-481.882
-511.444
-523.721
-518.452
-499.489
-472.828
-444.235
-417.711
-394.441
-373.601
-353.906
-334.485
-314.928
-294.948
-274.296
-253.492
-233.301
-214.265
-196.577
-179.824
-163.726
-148.173
-133.086
-118.38
-103.993
-89.8943
-76.0779
-62.5486
-49.3657
-36.6567
-24.6521
-13.3273
-3.42134
6.66601
11.5648
15.7622
-49.9015
-127.024
-210.949
-290.548
-357.347
-409.667
-447.742
-470.425
-476.903
-469.17
-451.681
-429.453
-406.619
-385.28
-365.606
-346.86
-328.308
-309.532
-290.277
-270.328
-250.276
-230.831
-212.3
-194.934
-178.482
-162.682
-147.415
-132.607
-118.179
-104.068
-90.2388
-76.6819
-63.3941
-50.4279
-37.9007
-26.0205
-14.7596
-4.8029
5.35637
10.4319
19.7182
-30.8065
-88.6699
-153.718
-221.056
-283.953
-337.984
-381.059
-411.58
-428.191
-431.279
-423.567
-408.964
-391.284
-373.103
-355.409
-338.107
-320.762
-303.033
-284.709
-265.634
-246.449
-227.819
-209.891
-192.924
-176.81
-161.333
-146.378
-131.882
-117.782
-104.026
-90.5833
-77.4442
-64.5924
-52.0614
-39.9369
-28.3784
-17.3138
-7.32639
2.86941
8.79881
20.287
-19.4606
-63.527
-113.052
-166.614
-220.577
-271.034
-314.871
-349.739
-373.77
-386.175
-388.047
-381.855
-370.586
-356.796
-342.011
-326.772
-311.061
-294.719
-277.619
-259.664
-241.527
-223.863
-206.719
-190.326
-174.674
-159.618
-145.055
-130.929
-117.196
-103.818
-90.7761
-78.0729
-65.7002
-53.6954
-42.1363
-31.1502
-20.6239
-10.9397
-1.1614
6.19236
18.9032
-12.982
-47.2213
-85.0776
-126.573
-170.249
-213.755
-254.434
-289.791
-317.679
-336.639
-346.51
-348.345
-344.005
-335.563
-324.666
-312.276
-298.779
-284.271
-268.752
-252.214
-235.344
-218.809
-202.62
-186.971
-171.921
-157.401
-143.334
-129.679
-116.406
-103.491
-90.9209
-78.705
-66.838
-55.3558
-44.3364
-33.889
-23.9356
-14.6802
-5.67433
2.26522
16.5012
-9.4864
-36.6092
-65.9271
-97.8932
-132.151
-167.63
-202.668
-235.317
-263.593
-285.803
-301.091
-309.46
-311.659
-308.959
-302.7
-293.93
-283.298
-271.141
-257.628
-242.858
-227.531
-212.331
-197.293
-182.589
-168.323
-154.491
-141.058
-128.001
-115.304
-102.958
-90.962
-79.3277
-68.0524
-57.1673
-46.7437
-36.865
-27.488
-18.7174
-10.4594
-2.99664
13.6701
-7.78594
-29.6412
-52.7213
-77.5264
-104.136
-132.205
-160.898
-188.993
-215.022
-237.483
-255.288
-267.876
-275.187
-277.689
-276.168
-271.448
-264.202
-254.897
-243.839
-231.231
-217.768
-204.157
-190.494
-176.961
-163.687
-150.725
-138.084
-125.766
-113.776
-102.118
-90.8039
-79.8515
-69.2624
-59.0643
-49.3232
-40.1053
-31.3857
-23.2317
-15.6777
-8.89638
10.7895
-7.10307
-24.9598
-43.4134
-62.8961
-83.6153
-105.548
-128.359
-151.402
-173.756
-194.334
-212.169
-226.525
-236.934
-243.301
-245.867
-245.071
-241.395
-235.269
-227.034
-216.956
-205.686
-193.94
-181.9
-169.774
-157.721
-145.836
-134.173
-122.762
-111.629
-100.796
-90.2868
-80.1258
-70.3198
-60.8961
-51.9154
-43.4343
-35.4347
-27.9645
-21.0817
-14.8866
8.08502
-6.94695
-21.6952
-36.6486
-52.153
-68.4267
-85.5633
-103.47
-121.851
-140.199
-157.824
-174.03
-188.178
-199.696
-208.221
-213.632
-216.007
-215.559
-212.552
-207.254
-199.912
-191.081
-181.443
-171.26
-160.774
-150.172
-139.582
-129.095
-118.772
-108.66
-98.7988
-89.2231
-79.9661
-71.0408
-62.4749
-54.3238
-46.6361
-39.3957
-32.6375
-26.4173
-20.794
5.68191
-7.01023
-19.289
-31.5369
-44.0212
-56.9349
-70.3993
-84.4227
-98.8899
-113.546
-127.994
-141.796
-154.496
-165.612
-174.73
-181.568
-185.988
-187.975
-187.603
-185.004
-180.339
-174.01
-166.612
-158.45
-149.788
-140.83
-131.73
-122.606
-113.545
-104.614
-95.8679
-87.353
-79.111
-71.1603
-63.5308
-56.2718
-49.4257
-42.9764
-36.9498
-31.3907
-26.3346
3.66667
-7.08231
-17.3657
-27.4843
-37.6393
-47.9924
-58.6602
-69.6852
-81.0342
-92.5878
-104.131
-115.408
-126.134
-135.965
-144.56
-151.624
-156.936
-160.361
-161.836
-161.364
-159.003
-154.977
-149.752
-143.627
-136.858
-129.652
-122.172
-114.55
-106.888
-99.2699
-91.7607
-84.4161
-77.2829
-70.3865
-63.7572
-57.44
-51.471
-45.8359
-40.5534
-35.6581
-31.1703
2.0966
-7.01571
-15.6549
-24.0602
-32.3811
-40.7514
-49.2741
-57.9978
-66.9226
-75.9956
-85.1028
-94.1017
-102.824
-111.05
-118.535
-125.044
-130.364
-134.325
-136.805
-137.73
-137.075
-134.918
-131.581
-127.316
-122.348
-116.863
-111.016
-104.939
-98.7383
-92.5002
-86.2964
-80.1864
-74.2197
-68.4257
-62.8353
-57.4888
-52.4173
-47.6097
-43.0807
-38.8572
-34.9502
0.956521
-6.83905
-14.1821
-21.2619
-28.1895
-35.0785
-42.0174
-49.0512
-56.1907
-63.4126
-70.654
-77.8334
-84.852
-91.5695
-97.824
-103.445
-108.264
-112.13
-114.915
-116.521
-116.884
-115.992
-114.046
-111.241
-107.753
-103.737
-99.3294
-94.6459
-89.786
-84.8325
-79.8545
-74.91
-70.0473
-65.2971
-60.6893
-56.2596
-52.0351
-48.0085
-44.1923
-40.6086
-37.2629
0.151138
-6.61264
-12.9531
-19.0204
-24.8979
-30.6849
-36.4579
-42.2563
-48.0939
-53.9612
-59.8215
-65.6254
-71.3125
-76.7923
-81.9561
-86.6844
-90.8538
-94.3443
-97.0455
-98.8624
-99.7237
-99.576
-98.5404
-96.7591
-94.3637
-91.4763
-88.2074
-84.6558
-80.9067
-77.0335
-73.0985
-69.1542
-65.2452
-61.4006
-57.6487
-54.0203
-50.5392
-47.2016
-44.0191
-41.0101
-38.1785
-0.402813
-6.33735
-11.8803
-17.1508
-22.2128
-27.1547
-32.0436
-36.9135
-41.7785
-46.6355
-51.4617
-56.2257
-60.8884
-65.389
-69.6532
-73.597
-77.1313
-80.1657
-82.6134
-84.3941
-85.4421
-85.6917
-85.2164
-84.118
-82.493
-80.4339
-78.0284
-75.356
-72.4878
-69.4852
-66.4016
-63.2826
-60.1669
-57.0813
-54.0509
-51.1021
-48.2555
-45.5096
-42.8758
-40.3691
-37.9934
-0.777059
-6.02944
-10.922
-15.5485
-19.9587
-24.2325
-28.429
-32.5778
-36.6922
-40.7724
-44.8037
-48.765
-52.63
-56.3564
-59.8919
-63.1771
-66.1474
-68.7364
-70.8778
-72.5087
-73.5745
-74.0109
-73.8645
-73.2089
-72.1135
-70.6488
-68.8825
-66.8778
-64.6915
-62.3741
-59.9697
-57.5163
-55.0468
-52.5843
-50.1508
-47.7683
-45.4543
-43.2091
-41.0434
-38.9694
-36.9914
-1.01991
-5.70092
-10.0523
-14.1469
-18.024
-21.7566
-25.3973
-28.9721
-32.4929
-35.962
-39.3695
-42.7009
-45.9376
-49.0495
-51.9987
-54.7425
-57.2339
-59.4241
-61.2636
-62.7045
-63.7041
-64.2061
-64.2426
-63.8672
-63.1306
-62.0859
-60.7857
-59.2794
-57.6122
-55.8243
-53.9517
-52.0255
-50.0727
-48.1129
-46.1648
-44.2464
-42.3726
-40.5443
-38.7716
-37.0641
-35.4268
-1.16685
-5.36259
-9.25673
-12.9048
-16.3382
-19.6242
-22.81
-25.9181
-28.9598
-31.9381
-34.8467
-37.6749
-40.4096
-43.0285
-45.5041
-47.8048
-49.8965
-51.743
-53.308
-54.5553
-55.4529
-55.9541
-56.0835
-55.8814
-55.385
-54.6348
-53.6716
-52.5341
-51.2579
-49.875
-48.4142
-46.9005
-45.356
-43.7968
-42.2386
-40.6961
-39.1813
-37.6959
-36.2489
-34.8477
-33.4978
-1.24324
-5.02236
-8.52534
-11.7935
-14.8524
-17.7643
-20.5716
-23.2943
-25.9426
-28.5203
-31.0232
-33.4438
-35.7723
-37.9922
-40.0829
-42.0213
-43.782
-45.3386
-46.6641
-47.7321
-48.5185
-48.9862
-49.1557
-49.0583
-48.7218
-48.1775
-47.4575
-46.5921
-45.6092
-44.5343
-43.3901
-42.1969
-40.9724
-39.7297
-38.4818
-37.2405
-36.0157
-34.8091
-33.6289
-32.4806
-31.3698
-1.26788
-4.68602
-7.8511
-10.7926
-13.5318
-16.1264
-18.6148
-21.0146
-23.3354
-25.5814
-27.7501
-29.8359
-31.8317
-33.7251
-35.5009
-37.1415
-38.6285
-39.9422
-41.063
-41.9714
-42.6501
-43.0699
-43.2492
-43.213
-42.9825
-42.5822
-42.0375
-41.3724
-40.609
-39.7674
-38.8658
-37.9204
-36.9453
-35.9513
-34.949
-33.9478
-32.9557
-31.9744
-31.011
-30.0697
-29.1562
-1.25455
-4.35772
-7.22842
-9.88662
-12.3503
-14.6731
-16.8897
-19.0161
-21.0611
-23.0292
-24.919
-26.7268
-28.4473
-30.0712
-31.5871
-32.9819
-34.242
-35.3531
-36.3007
-37.0709
-37.6514
-38.0196
-38.1927
-38.1907
-38.0306
-37.7316
-37.3141
-36.7973
-36.1988
-35.5345
-34.8191
-34.0654
-33.2848
-32.486
-31.6775
-30.8671
-30.061
-29.2609
-28.473
-27.7001
-26.948
-1.21371
-4.04027
-6.65283
-9.06352
-11.288
-13.3759
-15.3589
-17.2513
-19.0617
-20.7946
-22.4495
-24.024
-25.5144
-26.9138
-28.2136
-29.4042
-30.4756
-31.4173
-32.2192
-32.8711
-33.3647
-33.6826
-33.8412
-33.857
-33.7433
-33.5159
-33.1912
-32.7847
-32.3105
-31.7815
-31.2091
-30.6039
-29.9749
-29.3291
-28.6736
-28.0145
-27.3569
-26.7022
-26.0557
-25.4194
-24.7991
-1.15309
-3.73558
-6.12041
-8.31361
-10.3288
-12.2124
-13.9929
-15.6837
-17.2928
-18.8247
-20.28
-21.6571
-22.9535
-24.1642
-25.283
-26.3029
-27.2166
-28.0167
-28.696
-29.2475
-29.6655
-29.9372
-30.0779
-30.1015
-30.0188
-29.8426
-29.5864
-29.2628
-28.8832
-28.4578
-27.9962
-27.5065
-26.9962
-26.4709
-25.9365
-25.3977
-24.8588
-24.3209
-23.7886
-23.2631
-22.7499
-1.07871
-3.44484
-5.62787
-7.62892
-9.4602
-11.1647
-12.7688
-14.2844
-15.7194
-17.0785
-18.3626
-19.5712
-20.7028
-21.7539
-22.7201
-23.5964
-24.3776
-25.0587
-25.6347
-26.1011
-26.4541
-26.6844
-26.8064
-26.832
-26.7698
-26.6306
-26.4254
-26.1645
-25.8573
-25.5121
-25.1364
-24.7372
-24.3202
-23.8901
-23.4517
-23.0088
-22.5649
-22.1208
-21.6806
-21.2449
-20.8189
-0.995036
-3.16876
-5.17221
-7.00281
-8.67157
-10.2185
-11.6677
-13.0303
-14.3138
-15.5229
-16.6594
-17.7232
-18.7138
-19.6289
-20.4654
-21.2201
-21.8895
-22.4702
-22.9592
-23.3534
-23.6509
-23.8448
-23.9489
-23.9731
-23.9246
-23.8123
-23.6456
-23.4328
-23.1817
-22.8989
-22.5909
-22.2629
-21.9198
-21.5656
-21.2038
-20.8379
-20.4704
-20.1021
-19.7365
-19.3739
-19.0191
-0.90559
-2.90766
-4.75081
-6.42962
-7.95422
-9.36176
-10.6743
-11.9024
-13.0533
-14.1317
-15.1399
-16.0784
-16.9475
-17.7458
-18.4716
-19.1227
-19.6972
-20.1929
-20.6081
-20.9411
-21.1912
-21.3536
-21.4409
-21.462
-21.4226
-21.3302
-21.1928
-21.0172
-20.8098
-20.5762
-20.3214
-20.05
-19.7658
-19.472
-19.1718
-18.8677
-18.5619
-18.255
-17.95
-17.6469
-17.3502
-0.813005
-2.66164
-4.36129
-5.90455
-7.30079
-8.5845
-9.77603
-10.8853
-11.9193
-12.8831
-13.7791
-14.6086
-15.3723
-16.0699
-16.7004
-17.2629
-17.7562
-18.1796
-18.5321
-18.8132
-19.0229
-19.1578
-19.2302
-19.2472
-19.2139
-19.1366
-19.0218
-18.8754
-18.7026
-18.5081
-18.2959
-18.0698
-17.8331
-17.5882
-17.3378
-17.0839
-16.8283
-16.5716
-16.3163
-16.062
-15.8133
-0.719387
-2.43061
-4.00157
-5.42345
-6.70506
-7.87835
-8.96219
-9.96597
-10.8966
-11.7592
-12.5566
-13.2906
-13.9624
-14.5724
-15.1206
-15.6066
-16.0305
-16.3919
-16.6909
-16.9277
-17.1028
-17.2142
-17.2731
-17.2858
-17.2564
-17.1904
-17.0932
-16.9698
-16.8244
-16.6611
-16.483
-16.2934
-16.0948
-15.8894
-15.6792
-15.466
-15.2513
-15.0355
-14.8207
-14.6064
-14.3969
-0.626314
-2.21441
-3.66976
-4.98279
-6.16172
-7.23623
-8.22382
-9.13354
-9.97223
-10.7451
-11.4553
-12.1052
-12.6964
-13.2299
-13.7063
-14.1262
-14.49
-14.7981
-15.0513
-15.2501
-15.3957
-15.4868
-15.5339
-15.5424
-15.5158
-15.4585
-15.3754
-15.2706
-15.1477
-15.0097
-14.8597
-14.6999
-14.5328
-14.3599
-14.183
-14.0036
-13.8228
-13.641
-13.46
-13.2792
-13.1026
-0.535071
-2.01276
-3.36423
-4.57944
-5.66623
-6.65209
-7.55337
-8.37883
-9.13529
-9.8281
-10.4609
-11.0362
-11.5562
-12.0225
-12.4362
-12.7983
-13.1099
-13.372
-13.5856
-13.7517
-13.8718
-13.9454
-13.9819
-13.9862
-13.961
-13.9103
-13.838
-13.7478
-13.6425
-13.5249
-13.3972
-13.2614
-13.1195
-12.9728
-12.8228
-12.6705
-12.5171
-12.3628
-12.2092
-12.0555
-11.9056
-0.446639
-1.82545
-3.08351
-4.21078
-5.21471
-6.12079
-6.94438
-7.69403
-8.37663
-8.99767
-9.56112
-10.07
-10.5269
-10.9337
-11.2921
-11.6036
-11.8696
-12.0916
-12.2709
-12.4088
-12.5071
-12.5656
-12.5932
-12.5939
-12.5701
-12.525
-12.4623
-12.3846
-12.2947
-12.1946
-12.0862
-11.9713
-11.8513
-11.7273
-11.6005
-11.4719
-11.3423
-11.212
-11.0822
-10.9523
-10.8257
-0.361851
-1.65226
-2.82647
-3.87463
-4.8039
-5.63795
-6.39129
-7.07245
-7.68834
-8.2447
-8.74581
-9.19509
-9.59545
-9.9493
-10.2587
-10.5255
-10.7514
-10.9382
-11.0874
-11.2006
-11.2795
-11.3244
-11.3433
-11.3397
-11.3156
-11.2738
-11.2172
-11.1485
-11.0696
-10.9823
-10.8883
-10.7889
-10.6853
-10.5786
-10.4695
-10.359
-10.2476
-10.1356
-10.0241
-9.9124
-9.80363
-0.281349
-1.49301
-2.59211
-3.56923
-4.43122
-5.20004
-5.8896
-6.50843
-7.06368
-7.56134
-8.00603
-8.4015
-8.75104
-9.05738
-9.32296
-9.54997
-9.74046
-9.89632
-10.0194
-10.1113
-10.174
-10.2081
-10.2209
-10.2152
-10.1927
-10.1557
-10.1068
-10.0479
-9.98084
-9.90696
-9.82762
-9.74398
-9.657
-9.56748
-9.47612
-9.38355
-9.29033
-9.19664
-9.10335
-9.00989
-8.91903
-0.205686
-1.34749
-2.37952
-3.29293
-4.09434
-4.80415
-5.43567
-5.99755
-6.49723
-6.94107
-7.33415
-7.68061
-7.98405
-8.2475
-8.47365
-8.66491
-8.82351
-8.95145
-9.05059
-9.12254
-9.16906
-9.191
-9.19484
-9.18311
-9.1573
-9.11951
-9.07187
-9.01617
-8.95386
-8.88619
-8.81427
-8.73906
-8.66135
-8.5818
-8.50089
-8.41916
-8.33705
-8.25463
-8.17261
-8.09043
-8.01052
-0.135383
-1.21567
-2.18787
-3.04403
-3.79066
-4.44689
-5.02563
-5.53561
-5.98444
-6.3788
-6.72423
-7.0254
-7.28637
-7.51056
-7.70091
-7.86006
-7.99042
-8.09423
-8.1736
-8.23038
-8.26648
-8.28296
-8.28547
-8.2759
-8.25534
-8.22528
-8.18735
-8.14289
-8.09302
-8.03872
-7.98089
-7.92032
-7.85763
-7.79339
-7.72805
-7.66203
-7.59572
-7.5292
-7.46306
-7.39675
-7.33248
-0.0710587
-1.09801
-2.0175
-2.82228
-3.51886
-4.12549
-4.65516
-5.11708
-5.51925
-5.86849
-6.17048
-6.43011
-6.65179
-6.83936
-6.99617
-7.125
-7.22817
-7.3076
-7.36498
-7.40176
-7.41952
-7.41937
-7.40674
-7.38364
-7.35137
-7.31157
-7.26587
-7.2156
-7.16174
-7.10515
-7.04648
-6.98634
-6.92515
-6.86333
-6.80109
-6.73876
-6.67658
-6.61452
-6.55299
-6.49155
-6.43192
-0.013181
-0.995222
-1.86965
-2.62982
-3.28178
-3.84261
-4.32548
-4.74062
-5.09714
-5.40286
-5.66406
-5.88577
-6.0722
-6.22708
-6.3539
-6.45608
-6.53682
-6.59905
-6.64524
-6.67732
-6.69697
-6.705
-6.70514
-6.69809
-6.68412
-6.6639
-6.63835
-6.60821
-6.57423
-6.53699
-6.49716
-6.45525
-6.41181
-6.36722
-6.32195
-6.27622
-6.23036
-6.18447
-6.13902
-6.09349
-6.04959
0.0379955
-0.906637
-1.74273
-2.46501
-3.07935
-3.60132
-4.04331
-4.41548
-4.72748
-4.98832
-5.20597
-5.38717
-5.53726
-5.66013
-5.75838
-5.83371
-5.88741
-5.92076
-5.93521
-5.93244
-5.9143
-5.8828
-5.84325
-5.79792
-5.74829
-5.69593
-5.64212
-5.58785
-5.53361
-5.47983
-5.42665
-5.37426
-5.32269
-5.27195
-5.22201
-5.17284
-5.12444
-5.07669
-5.02973
-4.98325
-4.93816
0.0819844
-0.830811
-1.63098
-2.31605
-2.89381
-3.38039
-3.78852
-4.12793
-4.40706
-4.63348
-4.81417
-4.95598
-5.06583
-5.15059
-5.21666
-5.2696
-5.31362
-5.35154
-5.38482
-5.41395
-5.43896
-5.45912
-5.47494
-5.48548
-5.49004
-5.48851
-5.48135
-5.46898
-5.45207
-5.43123
-5.40723
-5.38068
-5.35223
-5.32238
-5.29165
-5.26037
-5.2289
-5.19741
-5.16628
-5.1352
-5.10539
0.117418
-0.771179
-1.5393
-2.18538
-2.7188
-3.158
-3.51949
-3.81688
-4.06138
-4.26158
-4.42344
-4.55068
-4.64541
-4.70893
-4.74241
-4.74761
-4.72715
-4.68453
-4.62377
-4.54896
-4.46379
-4.37219
-4.28042
-4.19137
-4.10655
-4.02711
-3.95356
-3.88606
-3.82424
-3.76764
-3.71561
-3.66758
-3.62297
-3.58121
-3.54182
-3.50443
-3.46867
-3.43424
-3.40093
-3.36856
-3.33713
0.142838
-0.73891
-1.49735
-2.12789
-2.63512
-3.03372
-3.33994
-3.57003
-3.74011
-3.86537
-3.95945
-4.034
-4.09852
-4.16009
-4.2233
-4.29034
-4.36127
-4.43468
-4.50828
-4.57963
-4.6467
-4.70731
-4.75929
-4.8009
-4.83166
-4.85182
-4.86224
-4.86386
-4.8579
-4.84566
-4.82869
-4.80815
-4.78503
-4.7601
-4.73404
-4.70735
-4.68044
-4.65361
-4.62711
-4.6011
-4.57567
0.157347
-0.735459
-1.50951
-2.16347
-2.6993
-3.12535
-3.45099
-3.68575
-3.83951
-3.92219
-3.94341
-3.91234
-3.8377
-3.72781
-3.59062
-3.43377
-3.26447
-3.08928
-2.91383
-2.74257
-2.57859
-2.42461
-2.28505
-2.16136
-2.05337
-1.96042
-1.88148
-1.81543
-1.75979
-1.71158
-1.66914
-1.63183
-1.59901
-1.57005
-1.54434
-1.52135
-1.50073
-1.4821
-1.46534
-1.44967
-1.43611
0.159976
-0.726592
-1.46761
-2.07886
-2.57959
-2.99069
-3.32979
-3.61061
-3.84388
-4.03812
-4.20011
-4.33529
-4.4481
-4.54206
-4.61995
-4.68384
-4.73527
-4.77542
-4.80531
-4.82602
-4.83878
-4.84477
-4.84282
-4.83306
-4.81702
-4.79619
-4.7717
-4.74443
-4.71667
-4.69064
-4.66703
-4.64575
-4.62675
-4.61018
-4.59606
-4.58444
-4.57524
-4.56852
-4.56409
-4.56211
-4.56176
36.421
37.4448
34.0215
32.5653
30.5803
27.8879
25.2944
23.0437
21.0172
19.1802
17.5334
16.0682
14.7617
13.5924
12.5455
11.6032
10.7558
9.99294
9.29927
8.66506
8.08824
7.56214
7.08323
6.64306
6.24151
5.87218
5.53383
5.22241
4.93461
4.66871
4.42281
4.19594
3.98606
3.79171
3.60999
3.43886
3.2798
3.13068
2.99206
2.86214
2.73926
2.62286
2.51307
2.41061
2.31305
2.22229
2.13408
2.04679
1.96217
1.88265
1.8136
1.74431
1.68515
1.62207
1.54847
1.47391
1.39473
1.32338
1.25877
1.19791
1.14588
1.08471
1.0135
0.940731
0.854552
0.752211
0.659855
0.581036
0.514085
0.443008
0.35666
0.283034
0.135681
0.0940859
35.8003
36.9278
33.6033
32.3617
30.4372
27.7285
25.1246
22.868
20.8395
19.0013
17.3557
15.8933
14.5909
13.4269
12.3853
11.4492
10.6083
9.85351
9.1693
8.54404
7.97489
7.4552
6.98184
6.54734
6.15134
5.78736
5.45375
5.14658
4.86302
4.60137
4.35962
4.13651
3.92993
3.73832
3.5592
3.39096
3.23482
3.08866
2.95249
2.82447
2.70319
2.5885
2.48074
2.38051
2.28498
2.19559
2.10849
2.0222
1.93872
1.8609
1.79344
1.72582
1.6674
1.60498
1.53197
1.45795
1.3799
1.30992
1.2468
1.18708
1.13533
1.07464
1.00388
0.93075
0.845365
0.744203
0.653189
0.575993
0.510073
0.439382
0.353402
0.279699
0.133285
0.0921213
35.4295
36.3277
33.1875
32.1063
30.2548
27.5446
24.9339
22.6735
20.6431
18.8026
17.1569
15.6961
14.397
13.2379
12.2022
11.2727
10.4386
9.69118
9.01518
8.39873
7.83925
7.32951
6.86483
6.43774
6.04777
5.68965
5.36166
5.0598
4.78185
4.52532
4.28836
4.06945
3.86655
3.67816
3.50231
3.33761
3.18498
3.04209
2.90852
2.78252
2.66311
2.55057
2.44537
2.34773
2.25445
2.16618
2.08027
1.99512
1.91302
1.83729
1.77146
1.70588
1.64805
1.58617
1.51401
1.44061
1.36396
1.29547
1.23404
1.17547
1.12413
1.06374
0.993445
0.920036
0.835543
0.735901
0.6463
0.570648
0.505665
0.435509
0.34984
0.275959
0.130684
0.0901425
34.8461
35.6784
32.7666
31.8066
30.0304
27.3302
24.7204
22.4648
20.4363
18.5935
16.9464
15.486
14.1886
13.0327
12.0012
11.0774
10.2493
9.50897
8.8407
8.23168
7.67985
7.17939
6.72521
6.30898
5.92847
5.57815
5.25644
4.96082
4.68916
4.43881
4.20758
3.99351
3.7948
3.61024
3.43842
3.27804
3.12951
2.99022
2.85941
2.73565
2.61855
2.50872
2.40662
2.31193
2.22108
2.13408
2.0493
1.96546
1.88502
1.81173
1.74786
1.68433
1.62716
1.56579
1.49457
1.42203
1.34671
1.28022
1.22048
1.16302
1.11214
1.05188
0.982079
0.908474
0.825087
0.727452
0.639354
0.565099
0.500871
0.4313
0.345909
0.271738
0.127845
0.0881985
34.0292
34.7822
32.0821
31.3139
29.6955
27.0491
24.4574
22.222
20.2067
18.3676
16.722
15.2639
13.969
12.8156
11.7871
10.8673
10.0439
9.30941
8.64828
8.04652
7.50189
7.00917
6.56287
6.15578
5.78558
5.44634
5.135
4.84823
4.58393
4.34005
4.11487
3.90639
3.71294
3.53339
3.36661
3.21129
3.06731
2.93188
2.80411
2.68304
2.56887
2.46245
2.36401
2.27257
2.18423
2.09878
2.01524
1.93309
1.85481
1.78435
1.72271
1.66122
1.6047
1.54376
1.47364
1.40228
1.32852
1.26385
1.20589
1.14963
1.0992
1.03915
0.969785
0.896119
0.813933
0.718588
0.632116
0.559156
0.495586
0.426751
0.341722
0.267219
0.124836
0.0862752
32.7885
33.3953
30.9365
30.4476
29.091
26.5829
24.0524
21.8687
19.8985
18.0895
16.4644
15.0213
13.7358
12.5874
11.5618
10.6454
9.82563
9.09541
8.44051
7.84512
7.30748
6.82255
6.38362
5.98376
5.62067
5.28998
4.98905
4.71408
4.46133
4.22724
4.00951
3.80691
3.61908
3.44553
3.28514
3.13606
2.99731
2.86607
2.74164
2.62378
2.51332
2.41114
2.31695
2.22903
2.14327
2.05945
1.97734
1.89732
1.82178
1.7545
1.69544
1.63606
1.58021
1.51973
1.45078
1.38084
1.309
1.24632
1.1902
1.13518
1.08513
1.02534
0.956452
0.882897
0.802103
0.709433
0.624728
0.552924
0.48982
0.421733
0.337157
0.262333
0.121645
0.0844172
30.4816
31.0889
28.9924
28.8895
27.9693
25.7571
23.3801
21.2996
19.4146
17.6691
16.0921
14.6891
13.4378
12.3167
11.3117
10.4102
9.59914
8.87451
8.22497
7.63328
7.10018
6.62125
6.18905
5.79649
5.44054
5.11717
4.82369
4.55708
4.31432
4.09145
3.88483
3.69222
3.51285
3.34654
3.19278
3.0501
2.91706
2.7908
2.67072
2.55712
2.4513
2.35408
2.26459
2.1804
2.09734
2.01536
1.93508
1.85775
1.78559
1.72189
1.66558
1.60836
1.55318
1.49321
1.42564
1.35747
1.28799
1.22738
1.17321
1.11957
1.06988
1.01048
0.94213
0.868865
0.789494
0.69965
0.616892
0.546219
0.483511
0.416253
0.332318
0.257273
0.118355
0.082618
26.0031
27.2697
25.8178
26.0812
25.7454
24.1088
22.1275
20.3208
18.647
17.0519
15.5728
14.2337
13.0274
11.9417
10.9676
10.095
9.31095
8.61171
7.98302
7.40672
6.8842
6.41233
5.98546
5.5984
5.24861
4.93238
4.64619
4.38653
4.15029
3.93421
3.73574
3.55344
3.38608
3.23184
3.08848
2.95373
2.82631
2.70463
2.58919
2.48102
2.38138
2.29037
2.20626
2.12598
2.04567
1.96574
1.8878
1.81381
1.74575
1.68609
1.6328
1.57782
1.52339
1.46404
1.398
1.33189
1.26519
1.20706
1.15488
1.10267
1.05327
0.994342
0.926674
0.853939
0.776136
0.689355
0.608714
0.539144
0.476702
0.410211
0.327045
0.251932
0.114949
0.0809317
18.9463
21.6318
21.3369
21.9094
22.1216
21.2003
19.7808
18.3944
17.0826
15.7989
14.5748
13.4427
12.4016
11.4404
10.5527
9.73437
8.98338
8.30483
7.69054
7.12944
6.62302
6.16705
5.75518
5.38171
5.04315
4.73637
4.45855
4.20646
3.97699
3.76686
3.57403
3.39783
3.23819
3.09382
2.96187
2.83855
2.72102
2.60722
2.49813
2.39588
2.30249
2.21796
2.13972
2.06401
1.98713
1.91
1.83513
1.76518
1.70183
1.64662
1.59655
1.54391
1.49034
1.43179
1.3676
1.30395
1.24049
1.18499
1.13494
1.08433
1.03529
0.976934
0.910077
0.838102
0.761889
0.678187
0.599852
0.531487
0.469345
0.403656
0.321444
0.246471
0.111483
0.0793601
11.2107
15.0631
16.1492
17.1216
17.8039
17.5836
16.7557
15.7963
14.837
13.8615
12.8983
11.9917
11.1556
10.3853
9.67478
9.01783
8.40905
7.84594
7.31893
6.81963
6.3509
5.91514
5.51337
5.1463
4.81408
4.51496
4.24639
4.00453
3.78535
3.58547
3.40263
3.23565
3.08388
2.94591
2.8195
2.70222
2.59237
2.48827
2.39008
2.29876
2.21503
2.13811
2.06531
1.99342
1.91985
1.84617
1.77558
1.71092
1.65328
1.60302
1.55639
1.50613
1.45356
1.39603
1.33398
1.2732
1.21345
1.16108
1.11331
1.06437
1.01572
0.95799
0.892104
0.821198
0.746779
0.666302
0.590425
0.523339
0.461486
0.396524
0.315342
0.240724
0.107882
0.0779545
3.96447
8.19041
10.3656
11.9005
13.0469
13.4869
13.3139
12.8683
12.3216
11.696
11.0183
10.3359
9.67754
9.05295
8.46773
7.92678
7.43242
6.98403
6.57447
6.19377
5.83696
5.50038
5.18007
4.8737
4.58137
4.30412
4.04422
3.80379
3.58411
3.38597
3.20907
3.05174
2.9115
2.78488
2.66806
2.55807
2.45378
2.35522
2.26409
2.1822
2.10946
2.04331
1.97943
1.91391
1.84487
1.77501
1.70886
1.64984
1.59851
1.55394
1.51137
1.4639
1.41261
1.35636
1.29675
1.23929
1.18378
1.13487
1.0897
1.04265
0.994505
0.937468
0.87265
0.803059
0.730559
0.65333
0.580104
0.514487
0.453066
0.388882
0.308865
0.234825
0.104146
0.0767245
-2.80726
1.32802
4.1135
6.22056
7.83982
8.85723
9.3123
9.4157
9.32391
9.09239
8.75652
8.36275
7.94718
7.52778
7.11453
6.71523
6.33551
5.97909
5.64706
5.33884
5.05547
4.79726
4.56156
4.34398
4.13971
3.94403
3.75367
3.56703
3.38403
3.20643
3.0374
2.8802
2.73717
2.60919
2.49498
2.39184
2.2975
2.21032
2.13016
2.05766
1.9926
1.933
1.87559
1.817
1.75552
1.69344
1.63491
1.58312
1.53832
1.49902
1.46028
1.41573
1.36629
1.31199
1.25543
1.20185
1.1511
1.10626
1.06397
1.01888
0.971287
0.914974
0.85136
0.78341
0.713188
0.639428
0.569042
0.505038
0.444135
0.380672
0.301827
0.228569
0.100125
0.0757318
-9.39127
-5.45106
-2.38882
0.155898
2.21202
3.73032
4.75114
5.39972
5.79067
5.98848
6.0355
5.9755
5.84654
5.67378
5.47337
5.25776
5.03652
4.81636
4.60099
4.39214
4.19161
4.00145
3.8231
3.65765
3.50591
3.36757
3.24097
3.12321
3.01082
2.90067
2.79087
2.68044
2.56903
2.45729
2.34695
2.24067
2.14212
2.05442
1.97897
1.91513
1.86017
1.80984
1.75983
1.70731
1.65202
1.59745
1.54783
1.50568
1.46999
1.4378
1.40371
1.36214
1.31438
1.26206
1.20886
1.15985
1.11472
1.07469
1.03591
0.993093
0.946117
0.890429
0.827966
0.761834
0.694171
0.624115
0.556932
0.494855
0.434683
0.371985
0.294359
0.222062
0.0957613
0.0750097
-15.8314
-12.0694
-8.89187
-6.07782
-3.67987
-1.74734
-0.245115
0.902458
1.76748
2.4029
2.85115
3.15195
3.34171
3.44875
3.49405
3.49407
3.46201
3.40782
3.33845
3.25856
3.17187
3.08155
2.99003
2.89896
2.80963
2.72314
2.64048
2.56289
2.49149
2.42683
2.36825
2.31352
2.25916
2.20174
2.13917
2.07115
1.9992
1.92604
1.85477
1.7883
1.72855
1.67531
1.62647
1.57951
1.53318
1.48904
1.44984
1.41729
1.39014
1.36515
1.33698
1.30044
1.25645
1.20746
1.15807
1.11355
1.07394
1.03912
1.00442
0.964455
0.918555
0.863651
0.802355
0.738159
0.673355
0.607363
0.543802
0.484038
0.424833
0.36286
0.286325
0.215074
0.0907955
0.0746241
-21.8672
-18.3015
-15.1267
-12.2047
-9.60274
-7.37389
-5.50121
-3.94122
-2.65493
-1.60764
-0.766115
-0.097333
0.42953
0.841271
1.15996
1.40393
1.58847
1.72616
1.82679
1.89813
1.94636
1.97664
1.99295
1.99823
1.99466
1.98399
1.9678
1.94759
1.92489
1.9011
1.87732
1.85427
1.83223
1.81108
1.79025
1.76871
1.74522
1.71849
1.68752
1.65169
1.61085
1.56516
1.51558
1.46445
1.41539
1.37263
1.33896
1.31458
1.29615
1.27884
1.25704
1.22637
1.18787
1.14464
1.10161
1.06351
1.03033
1.00081
0.970022
0.932675
0.887834
0.833774
0.773771
0.71176
0.650187
0.588678
0.529346
0.472493
0.414674
0.353518
0.277972
0.207753
0.0850902
0.07459
-27.1989
-23.8905
-20.8293
-17.9389
-15.2761
-12.8889
-10.7763
-8.91979
-7.3026
-5.908
-4.71571
-3.70318
-2.84777
-2.12808
-1.5246
-1.01988
-0.598391
-0.246704
0.0466484
0.29122
0.495064
0.664928
0.806426
0.924111
1.02174
1.10247
1.16895
1.22345
1.26781
1.30344
1.33146
1.35277
1.3683
1.37917
1.38671
1.39236
1.3974
1.40237
1.40661
1.40825
1.4049
1.39422
1.37504
1.34799
1.31553
1.28151
1.24993
1.22354
1.20217
1.1834
1.16295
1.13675
1.10476
1.06929
1.03468
1.00498
0.980034
0.957588
0.932231
0.898517
0.855194
0.801828
0.742652
0.682445
0.624125
0.567481
0.513142
0.460086
0.404372
0.344234
0.269448
0.200065
0.0783485
0.0749161
-31.4932
-28.5116
-25.6691
-22.9344
-20.3489
-17.9488
-15.7423
-13.7278
-11.9031
-10.2647
-8.80448
-7.51121
-6.37179
-5.37237
-4.49896
-3.73778
-3.07577
-2.50068
-2.00152
-1.56841
-1.19262
-0.866457
-0.583247
-0.337176
-0.123301
0.0626952
0.224592
0.365584
0.488357
0.595098
0.687589
0.767312
0.835612
0.893833
0.943335
0.985462
1.02152
1.05263
1.07946
1.10227
1.12104
1.13553
1.14544
1.15058
1.1512
1.14807
1.14201
1.13344
1.12151
1.10489
1.08234
1.05361
1.02128
0.988848
0.960182
0.937864
0.920654
0.905119
0.885597
0.856646
0.816663
0.765925
0.708991
0.65123
0.596203
0.544226
0.495006
0.446311
0.39348
0.334943
0.26107
0.19244
0.0705823
0.0757781
-34.3111
-31.7035
-29.161
-26.6792
-24.2852
-22.0033
-19.8454
-17.8183
-15.9279
-14.1783
-12.5701
-11.1011
-9.76655
-8.56032
-7.47483
-6.50164
-5.63181
-4.85631
-4.16632
-3.55334
-3.00935
-2.52697
-2.09935
-1.72039
-1.38456
-1.08691
-0.823025
-0.58902
-0.381536
-0.197657
-0.0348606
0.109088
0.236217
0.348388
0.447266
0.53426
0.610544
0.677087
0.734668
0.783987
0.825816
0.861134
0.89104
0.916672
0.939155
0.959209
0.976773
0.990781
0.999107
0.999577
0.990696
0.972483
0.947625
0.920272
0.895165
0.875726
0.861629
0.849505
0.833619
0.808348
0.771613
0.724059
0.670442
0.616438
0.565952
0.519525
0.475971
0.432047
0.382485
0.325764
0.252751
0.184768
0.0614535
0.0776227
-35.6904
-33.4623
-31.2522
-29.0679
-26.9266
-24.8441
-22.8322
-20.9006
-19.0586
-17.3135
-15.6709
-14.1341
-12.7044
-11.3813
-10.163
-9.04609
-8.02614
-7.09798
-6.25593
-5.49394
-4.80592
-4.18574
-3.62754
-3.1257
-2.67492
-2.27027
-1.90724
-1.5817
-1.28992
-1.02857
-0.794601
-0.58527
-0.398058
-0.230686
-0.0811412
0.0522936
0.171066
0.276409
0.369405
0.451055
0.522365
0.584412
0.638318
0.685195
0.726155
0.76216
0.793667
0.820562
0.842008
0.856852
0.864036
0.863292
0.855987
0.844597
0.832159
0.820964
0.810906
0.799786
0.783723
0.758805
0.723562
0.678849
0.62896
0.579221
0.533573
0.49281
0.455213
0.41668
0.3712
0.316979