/*--------------------------------*- C++ -*----------------------------------*\
| =========                 |                                                 |
| \\      /  F ield         | OpenFOAM: The Open Source CFD Toolbox           |
|  \\    /   O peration     | Version:  2312                                  |
|   \\  /    A nd           | Website:  www.openfoam.com                      |
|    \\/     M anipulation  |                                                 |
\*---------------------------------------------------------------------------*/
FoamFile
{
    version     2.0;
    format      ascii;
    arch        "LSB;label=32;scalar=64";
    class       surfaceScalarField;
    location    "150";
    object      phi;
}
// * * * * * * * * * * * * * * * * * * * * * * * * * * * * * * * * * * * * * //

dimensions      [0 3 -1 0 0 0 0];

oriented        oriented;

internalField   nonuniform List<scalar> 
21876
(
0.0450489
-0.00898628
-0.0360627
0.041411
0.00363803
0.0303803
0.0110308
0.0179235
0.0124569
0.00778653
0.0101368
0.00143156
0.00635471
-0.00173903
0.00317008
-0.0022593
0.000520268
-0.00110921
-0.001149
0.000861619
-0.00197024
0.00338679
-0.00252578
0.00598759
-0.00260112
0.00829185
-0.00230418
0.0101666
-0.00187421
0.0116202
-0.00145399
0.0127133
-0.00109285
0.0135083
-0.000795016
0.0140611
-0.000552635
0.0144104
-0.000349012
0.0145804
-0.000169977
0.0145497
3.11062e-05
0.0143995
0.000150033
0.0142532
0.000146717
0.0140947
0.000158813
0.0138924
0.00020242
0.0136405
0.000251942
0.013333
0.000307937
0.0129677
0.000365289
0.0125401
0.000428217
0.0120438
0.000496205
0.0114714
0.000573128
0.0108138
0.000657432
0.010065
0.000749431
0.00921162
0.000853213
0.00825295
0.000959163
0.00719582
0.00105685
0.00606203
0.00113405
0.00486021
0.00120096
0.00357444
0.00128543
0.00198557
0.00158902
-0.00278501
0.00477206
0.0475032
-0.0189842
-0.0375053
0.0506146
0.000526664
0.0521976
0.00944777
0.0499383
0.0147161
0.0435163
0.0165588
0.0348934
0.0149775
0.0269262
0.0111372
0.0210457
0.0064008
0.0176901
0.00220671
0.0167892
-0.00106936
0.0174026
-0.00313947
0.0185602
-0.00375886
0.019697
-0.00344099
0.0206352
-0.00281262
0.0213556
-0.00217467
0.0218754
-0.00161284
0.0222173
-0.00113703
0.0224071
-0.00074269
0.0224608
-0.000402833
0.0223806
-9.01731e-05
0.0221491
0.000262231
0.0218358
0.000462663
0.0215202
0.000461908
0.0212025
0.000476083
0.0208624
0.000542078
0.0204907
0.000623157
0.0200767
0.000721709
0.0196116
0.000830005
0.019086
0.000953687
0.0184894
0.00109245
0.0178106
0.00125197
0.0170364
0.00143139
0.0161554
0.00163069
0.015147
0.0018616
0.0140025
0.00210428
0.0127137
0.00234595
0.0112853
0.00256329
0.00968457
0.00280228
0.00804106
0.00293024
0.00635353
0.0032783
-0.00151478
0.00508655
0.052561
-0.0312746
-0.0402706
0.0595577
-0.00647006
0.0638069
0.00519865
0.066908
0.011615
0.0678091
0.0156577
0.0658136
0.0169728
0.061626
0.0153248
0.056545
0.0114818
0.0517932
0.00695866
0.0478379
0.00288618
0.0447225
-2.4016e-05
0.0424039
-0.00144034
0.0406617
-0.00169875
0.0392604
-0.00141103
0.0380912
-0.00100569
0.0371188
-0.000640351
0.0363123
-0.000330586
0.0356283
-5.86178e-05
0.0349986
0.000227028
0.0343371
0.000571485
0.0335576
0.00104197
0.0327587
0.00126154
0.0320167
0.00120424
0.0313264
0.00116673
0.0306572
0.00121145
0.0299884
0.00129213
0.0293015
0.00140897
0.0285794
0.00155221
0.027805
0.00172851
0.0269618
0.00193573
0.0260341
0.00218003
0.0250057
0.00245976
0.0238628
0.00277382
0.0225805
0.00314386
0.021149
0.00353575
0.0195579
0.00393691
0.0178113
0.00430974
0.0158597
0.00475347
0.0138248
0.00496465
0.0117031
0.00539966
0.001726
0.00846215
0.0564835
-0.0440994
-0.0436587
0.0663225
-0.016309
0.0717041
-0.000182937
0.0754488
0.00787031
0.078605
0.0125014
0.0807922
0.0147855
0.081345
0.014772
0.080226
0.0126008
0.0781046
0.00908011
0.0757082
0.00528273
0.0734894
0.00219474
0.0715942
0.000454963
0.0699192
-2.37078e-05
0.0682388
0.000269401
0.0663874
0.00084549
0.0642972
0.00144981
0.0619743
0.00199213
0.0594762
0.00243938
0.0568895
0.00281356
0.0543136
0.00314722
0.0518103
0.00354493
0.0496728
0.00339872
0.0479107
0.00296602
0.0464347
0.0026419
0.0451356
0.00251021
0.043936
0.00249142
0.0427763
0.00256836
0.0416163
0.00271191
0.0404267
0.00291799
0.0391837
0.00317846
0.0378662
0.00349734
0.0364531
0.0038727
0.0349252
0.00430175
0.0332496
0.00481947
0.0314136
0.00537205
0.0294042
0.00594657
0.0272234
0.00649102
0.0248107
0.00716672
0.0222646
0.0075116
0.01958
0.00808531
0.00570298
0.0156047
0.0609052
-0.0573326
-0.047672
0.0727469
-0.0281506
0.0808469
-0.00828293
0.0861607
0.00255647
0.089909
0.00875312
0.0925507
0.0121438
0.0940902
0.0132324
0.0944161
0.0122749
0.0936536
0.00984274
0.0921559
0.00678058
0.0903352
0.00401551
0.0885659
0.00222432
0.0870692
0.00147307
0.0858467
0.001492
0.0848084
0.00188372
0.0838515
0.00240667
0.0828675
0.00297597
0.0817432
0.00356377
0.0803645
0.00419226
0.0786278
0.00488397
0.0764556
0.00571733
0.0741163
0.00573802
0.0717501
0.00533236
0.0694301
0.00496234
0.0671841
0.00475625
0.0650321
0.00464352
0.0629739
0.00462673
0.0609962
0.0046898
0.0590731
0.0048413
0.0571708
0.00508079
0.055251
0.00541735
0.0532732
0.00585057
0.0512001
0.00637491
0.0489796
0.00703991
0.0465896
0.00776198
0.0440112
0.00852497
0.0412414
0.00926077
0.0382078
0.0102001
0.034991
0.0107282
0.0315704
0.0115058
0.010125
0.0271484
0.0662151
-0.071295
-0.0522528
0.0796038
-0.0415392
0.0905857
-0.0192649
0.0985402
-0.00539799
0.104065
0.00322822
0.107662
0.00854666
0.109616
0.0112785
0.110127
0.0117644
0.10945
0.0105199
0.10796
0.00826983
0.10607
0.00590594
0.104138
0.00415645
0.10242
0.00319085
0.100975
0.00293672
0.0997561
0.00310308
0.0987084
0.0034543
0.0977976
0.00388669
0.0969977
0.00436359
0.0962764
0.00491351
0.0955928
0.0055674
0.0948633
0.00644667
0.0940764
0.00652472
0.0932124
0.00619618
0.0922336
0.00594089
0.0910953
0.0058944
0.0897769
0.00596166
0.0882658
0.00613765
0.0865569
0.00639858
0.0846508
0.00674718
0.0825514
0.00718011
0.0802616
0.00770702
0.0777821
0.00833002
0.0751111
0.00904593
0.0722203
0.00993071
0.069111
0.0108713
0.0657794
0.0118567
0.0622294
0.0128111
0.0583741
0.0140556
0.054298
0.0148046
0.0499425
0.0158617
0.0150571
0.0450108
0.0727
-0.0865605
-0.0574345
0.0875102
-0.0563494
0.100605
-0.0323596
0.111151
-0.015944
0.119031
-0.00465187
0.124627
0.0029509
0.12816
0.00774525
0.129793
0.0101313
0.129818
0.0104947
0.128681
0.00940679
0.126874
0.00771265
0.124811
0.0062203
0.122811
0.00519024
0.121016
0.00473178
0.119427
0.00469246
0.118
0.00488105
0.116699
0.00518766
0.115501
0.00556148
0.114391
0.00602382
0.113365
0.00659276
0.11242
0.00739197
0.111622
0.00732319
0.110964
0.00685396
0.110426
0.00647907
0.10996
0.00635987
0.109527
0.00639536
0.109082
0.00658189
0.10858
0.00690157
0.107966
0.00736096
0.107186
0.00795971
0.106182
0.00871091
0.104893
0.00961946
0.103257
0.0106817
0.101197
0.011991
0.0986651
0.0134033
0.0956245
0.0148973
0.0920621
0.0163735
0.0878798
0.018238
0.0831989
0.0194855
0.0779486
0.0211121
0.0206038
0.0724019
0.0804961
-0.103738
-0.063319
0.0969991
-0.0728524
0.112015
-0.0473756
0.124951
-0.0288803
0.135363
-0.0150635
0.143263
-0.00494931
0.148842
0.0021665
0.152247
0.00672671
0.153682
0.00905884
0.153532
0.00955691
0.152296
0.00894941
0.150447
0.00806871
0.148402
0.00723585
0.146412
0.0067212
0.144569
0.00653618
0.142868
0.00658123
0.141284
0.00677167
0.139791
0.00705515
0.138364
0.00745069
0.136985
0.00797117
0.135641
0.00873632
0.134432
0.00853155
0.133363
0.00792365
0.132437
0.00740443
0.131634
0.00716311
0.130933
0.00709588
0.130323
0.00719254
0.129789
0.00743506
0.12932
0.00783024
0.1289
0.00837931
0.128511
0.00910064
0.128121
0.010009
0.127688
0.0111144
0.127137
0.012542
0.126382
0.0141591
0.125305
0.0159743
0.123774
0.017904
0.121566
0.0204461
0.118596
0.0224554
0.114666
0.0250423
0.0254434
0.109826
0.0897289
-0.123478
-0.0699883
0.108398
-0.0915213
0.125433
-0.0644106
0.140534
-0.0439814
0.153329
-0.0278588
0.163639
-0.0152596
0.171487
-0.00568109
0.176984
0.00123007
0.180283
0.00575965
0.181649
0.00819084
0.181517
0.00908183
0.180363
0.00922297
0.17865
0.00894837
0.176731
0.00864041
0.174803
0.00846402
0.172944
0.00844018
0.17117
0.00854547
0.169476
0.00874874
0.16785
0.00907704
0.166275
0.00954664
0.164731
0.0102793
0.163322
0.00994069
0.162033
0.00921309
0.16087
0.00856763
0.159816
0.00821727
0.158847
0.00806481
0.157946
0.00809291
0.157102
0.0082796
0.156304
0.00862775
0.155551
0.00913294
0.154844
0.00980699
0.154195
0.0106586
0.153617
0.0116916
0.153119
0.0130406
0.152718
0.0145603
0.152409
0.0162827
0.152158
0.0181558
0.151839
0.0207646
0.151278
0.023016
0.150328
0.025993
0.0276651
0.148106
0.100574
-0.146506
-0.0775463
0.122021
-0.112969
0.141464
-0.0838533
0.158823
-0.06134
0.173919
-0.0429554
0.186612
-0.0279525
0.19684
-0.0159094
0.204624
-0.00655384
0.210062
0.000322407
0.213341
0.00491141
0.214777
0.00764619
0.214788
0.00921204
0.21383
0.00990652
0.212313
0.0101573
0.210535
0.0102419
0.208671
0.0103041
0.206807
0.0104095
0.20498
0.010576
0.203201
0.0108553
0.201472
0.0112765
0.199783
0.0119684
0.198238
0.011485
0.196813
0.0106383
0.195512
0.00986896
0.194324
0.00940519
0.193227
0.00916211
0.1922
0.00911992
0.191226
0.0092534
0.19029
0.00956353
0.189381
0.0100422
0.188491
0.0106966
0.18762
0.0115295
0.186775
0.0125373
0.185957
0.0138586
0.185202
0.0153147
0.184555
0.0169303
0.184058
0.0186525
0.183738
0.0210844
0.183561
0.0231931
0.183661
0.0258936
0.0281448
0.183181
0.113256
-0.173656
-0.0861056
0.138218
-0.137931
0.160651
-0.106285
0.18061
-0.0812992
0.19811
-0.0604552
0.21315
-0.0429929
0.225729
-0.0284879
0.23586
-0.0166848
0.243587
-0.00740483
0.249029
-0.000530369
0.252413
0.00426222
0.254056
0.00756839
0.254348
0.00961506
0.253694
0.0108114
0.252446
0.0114892
0.250865
0.011886
0.249114
0.0121597
0.247294
0.0123967
0.245458
0.0126913
0.243635
0.0130993
0.241838
0.0137649
0.240179
0.0131442
0.238631
0.012186
0.237201
0.0112989
0.235888
0.0107189
0.234674
0.0103755
0.233544
0.0102506
0.23248
0.0103172
0.231469
0.0105744
0.230499
0.0110122
0.229562
0.011634
0.228652
0.0124392
0.22777
0.0134198
0.226902
0.0147261
0.226068
0.0161487
0.225288
0.0177097
0.224585
0.0193558
0.223963
0.0217062
0.223451
0.0237046
0.223199
0.0261457
0.0283516
0.222992
0.128071
-0.205916
-0.0958105
0.157428
-0.167289
0.183598
-0.132456
0.206728
-0.104429
0.226982
-0.0807092
0.244523
-0.060534
0.259477
-0.0434425
0.271939
-0.0291465
0.281986
-0.0174515
0.289696
-0.00824059
0.295232
-0.00127413
0.298844
0.0039568
0.30082
0.00763889
0.301506
0.0101257
0.301249
0.0117465
0.300349
0.0127854
0.299039
0.0134698
0.297481
0.0139543
0.295786
0.0143867
0.294023
0.014862
0.292238
0.0155504
0.290545
0.0148369
0.288935
0.0137956
0.287422
0.0128126
0.286013
0.0121276
0.284703
0.0116851
0.283482
0.0114723
0.282336
0.0114628
0.281256
0.0116545
0.280233
0.0120352
0.279261
0.0126059
0.278338
0.013362
0.277467
0.0142918
0.276633
0.0155591
0.275858
0.0169238
0.275157
0.0184106
0.274545
0.0199677
0.273994
0.0222573
0.273551
0.024148
0.273255
0.0264411
0.0284761
0.27313
0.14539
-0.244466
-0.106841
0.180193
-0.202091
0.211015
-0.163278
0.238071
-0.131484
0.261644
-0.104283
0.282047
-0.0809366
0.299556
-0.0609518
0.314395
-0.0439861
0.326738
-0.029794
0.336714
-0.0182164
0.344463
-0.00902349
0.350194
-0.00177381
0.354131
0.00370138
0.356541
0.00771542
0.35772
0.0105683
0.357958
0.0125474
0.357513
0.0139146
0.356593
0.0148739
0.355358
0.0156221
0.353922
0.0162974
0.352371
0.0171019
0.350814
0.0163939
0.349277
0.0153324
0.347791
0.0142991
0.346379
0.0135398
0.345049
0.0130144
0.343802
0.0127194
0.342633
0.0126321
0.341536
0.0127509
0.340508
0.0130631
0.339547
0.0135674
0.338652
0.0142566
0.337829
0.0151147
0.337067
0.0163218
0.336388
0.0176026
0.335812
0.0189862
0.335361
0.020419
0.335001
0.0226176
0.334795
0.0243532
0.33475
0.0264861
0.0283288
0.334898
0.165681
-0.290727
-0.119421
0.207194
-0.243604
0.243775
-0.199859
0.275699
-0.163408
0.30336
-0.131943
0.327201
-0.104778
0.347651
-0.0814013
0.36508
-0.0614157
0.379795
-0.0445082
0.392024
-0.0304464
0.401969
-0.0189683
0.409843
-0.00964746
0.415842
-0.00229777
0.420188
0.00336952
0.423119
0.00763751
0.424883
0.0107827
0.425725
0.0130724
0.425864
0.0147352
0.425485
0.016001
0.424739
0.0170434
0.423746
0.0180952
0.422587
0.0175531
0.421342
0.0165775
0.420069
0.0155721
0.418814
0.0147938
0.417606
0.0142225
0.416459
0.0138666
0.41538
0.0137108
0.414374
0.0137573
0.413442
0.0139945
0.412589
0.0144207
0.411819
0.015027
0.411138
0.0157948
0.410538
0.016922
0.410044
0.0180971
0.409676
0.0193542
0.409458
0.0206371
0.409353
0.0227223
0.409434
0.024272
0.409703
0.0262172
0.0278415
0.410191
0.189525
-0.346421
-0.133831
0.239277
-0.293356
0.282954
-0.243535
0.320898
-0.201353
0.353612
-0.164657
0.381671
-0.132837
0.405649
-0.105379
0.42607
-0.0818375
0.443389
-0.0618271
0.457969
-0.045026
0.470111
-0.0311102
0.4801
-0.0196371
0.488157
-0.0103548
0.494494
-0.00296707
0.499324
0.00280741
0.502861
0.0072456
0.505316
0.0106174
0.506892
0.013159
0.507776
0.0151172
0.50813
0.0166895
0.508095
0.0181301
0.507683
0.017965
0.507037
0.0172235
0.50625
0.0163596
0.505395
0.0156481
0.504525
0.0150926
0.503674
0.0147176
0.502866
0.0145192
0.502116
0.0145062
0.50144
0.0146713
0.500846
0.0150145
0.500346
0.015527
0.499951
0.0161892
0.499654
0.0172195
0.499482
0.0182692
0.499456
0.01938
0.4996
0.0204932
0.499873
0.0224491
0.500349
0.0237968
0.501023
0.0255431
0.026942
0.501922
0.217639
-0.41364
-0.150419
0.277487
-0.353205
0.329885
-0.295933
0.375252
-0.24672
0.41421
-0.203615
0.447476
-0.166103
0.475777
-0.13368
0.499797
-0.105857
0.520145
-0.0821761
0.537337
-0.0622177
0.551803
-0.0455761
0.563933
-0.0317674
0.574027
-0.0204485
0.582335
-0.0112755
0.589083
-0.00394067
0.59448
0.0018488
0.598722
0.00637571
0.60199
0.00989066
0.604458
0.0126495
0.606282
0.0148649
0.607608
0.0168047
0.608326
0.0172463
0.608642
0.0169076
0.608679
0.0163231
0.608538
0.015788
0.608298
0.0153329
0.608014
0.0150014
0.607729
0.0148042
0.607475
0.0147604
0.607277
0.0148692
0.607156
0.0151354
0.60713
0.0155527
0.607217
0.0161024
0.607411
0.0170249
0.607744
0.017937
0.608235
0.0188884
0.608909
0.0198195
0.609722
0.0216364
0.610744
0.0227751
0.611967
0.0243205
0.0254974
0.613411
0.250888
-0.494932
-0.169597
0.323098
-0.425414
0.386196
-0.359032
0.440695
-0.301219
0.487354
-0.250274
0.527053
-0.205802
0.560688
-0.167315
0.589117
-0.134286
0.61312
-0.106179
0.633374
-0.0824709
0.650457
-0.0626594
0.664888
-0.0461986
0.677075
-0.0326357
0.687354
-0.0215547
0.696004
-0.01259
0.703261
-0.00540817
0.709334
0.00030274
0.714408
0.00481614
0.718649
0.00840887
0.722205
0.0113086
0.725216
0.013794
0.727412
0.0150498
0.729047
0.0152725
0.730265
0.0151048
0.731191
0.0148624
0.731921
0.0146025
0.732533
0.0143897
0.733086
0.0142509
0.733628
0.0142178
0.734198
0.0142993
0.734827
0.0145068
0.735541
0.0148389
0.736363
0.0152803
0.737293
0.0160943
0.738364
0.0168664
0.739597
0.0176557
0.741013
0.018403
0.742571
0.0200789
0.744334
0.0210116
0.746293
0.0223618
0.0233269
0.748464
0.263533
-0.584139
-0.174326
0.342643
-0.504524
0.411679
-0.428068
0.471205
-0.360745
0.522062
-0.30113
0.565217
-0.248956
0.601663
-0.203762
0.632356
-0.164979
0.658174
-0.131997
0.679891
-0.104188
0.698181
-0.0809491
0.713643
-0.0616611
0.726765
-0.0457573
0.737948
-0.0327381
0.747524
-0.0221664
0.755766
-0.0136499
0.7629
-0.00683095
0.769119
-0.00140251
0.774588
0.0029395
0.779451
0.0064459
0.783834
0.00941073
0.787333
0.0115506
0.790212
0.0123931
0.792612
0.0127053
0.794656
0.0128184
0.796445
0.0128132
0.798063
0.0127722
0.799575
0.0127382
0.801038
0.0127552
0.802495
0.0128422
0.803983
0.0130186
0.805533
0.0132892
0.80717
0.0136431
0.8089
0.0143642
0.810752
0.0150144
0.812746
0.0156614
0.814902
0.0162474
0.817183
0.0177978
0.819643
0.0185516
0.822271
0.0197335
0.0205184
0.825079
0.273028
-0.680117
-0.177049
0.358044
-0.58954
0.432165
-0.502189
0.496002
-0.424582
0.550462
-0.35559
0.596588
-0.295082
0.635452
-0.242626
0.668087
-0.197614
0.695448
-0.159358
0.718387
-0.127127
0.737652
-0.100214
0.753906
-0.0779152
0.767699
-0.0595507
0.779492
-0.0445308
0.789665
-0.0323391
0.79853
-0.0225154
0.806345
-0.0146463
0.813321
-0.00837831
0.819635
-0.00337381
0.825434
0.000646924
0.830847
0.00399754
0.835371
0.00702594
0.839272
0.00849301
0.842676
0.00930081
0.845701
0.00979326
0.848445
0.0100699
0.850988
0.010229
0.853398
0.0103275
0.855733
0.0104209
0.858037
0.0105382
0.860349
0.0107066
0.8627
0.0109376
0.865118
0.0112253
0.867611
0.0118711
0.870205
0.01242
0.872919
0.0129475
0.875769
0.0133975
0.878728
0.0148393
0.881837
0.0154427
0.885088
0.0164826
0.0171165
0.88849
0.284576
-0.783493
-0.181201
0.376069
-0.681032
0.455787
-0.581907
0.524391
-0.493186
0.58286
-0.414059
0.632316
-0.344539
0.673915
-0.284225
0.708771
-0.232471
0.73792
-0.188506
0.762288
-0.151495
0.782693
-0.120619
0.79986
-0.0950822
0.814399
-0.0740893
0.826823
-0.0569549
0.837561
-0.0430775
0.846969
-0.031923
0.855338
-0.0230153
0.862908
-0.0159483
0.869876
-0.0103416
0.876404
-0.00588169
0.882632
-0.00223014
0.887986
0.00167205
0.892731
0.00374764
0.896987
0.00504494
0.900862
0.00591841
0.904448
0.00648405
0.907823
0.00685396
0.911053
0.00709775
0.914192
0.0072816
0.917287
0.00744388
0.920374
0.00761956
0.923485
0.00782662
0.926645
0.0080647
0.929867
0.00864919
0.933173
0.00911404
0.936579
0.00954147
0.940099
0.00987737
0.943714
0.0112246
0.947455
0.0117016
0.951316
0.0126213
0.0131283
0.955304
0.298037
-0.894929
-0.1866
0.396607
-0.779602
0.482454
-0.667755
0.556293
-0.567025
0.619181
-0.476946
0.672327
-0.397684
0.716974
-0.328872
0.754325
-0.269822
0.785497
-0.219678
0.811494
-0.177492
0.833206
-0.142331
0.851419
-0.113295
0.866801
-0.0894709
0.879918
-0.0700719
0.891246
-0.0544061
0.901183
-0.0418599
0.910057
-0.031889
0.918138
-0.0240294
0.925649
-0.0178531
0.932775
-0.0130075
0.939669
-0.00912353
0.945706
-0.00436496
0.951155
-0.00170211
0.956131
6.92409e-05
0.960735
0.00131423
0.965055
0.00216412
0.969166
0.00274397
0.973128
0.00313511
0.976996
0.00341388
0.980812
0.00362742
0.984614
0.00381829
0.988429
0.00401086
0.992284
0.0042102
0.99619
0.00474266
1.00017
0.00513615
1.00423
0.0054783
1.00839
0.00571723
1.01264
0.00698005
1.01699
0.00734959
1.02144
0.00816608
0.00856554
1.02601
0.31335
-1.01514
-0.193138
0.419637
-0.885889
0.512178
-0.760296
0.591747
-0.646594
0.659483
-0.544682
0.71669
-0.454891
0.764707
-0.37689
0.80483
-0.309945
0.838264
-0.253111
0.866094
-0.205322
0.889283
-0.16552
0.908683
-0.132695
0.925021
-0.105808
0.938915
-0.0839659
0.950888
-0.0663799
0.961381
-0.0523519
0.970756
-0.0412645
0.979318
-0.0325912
0.987317
-0.0258519
0.99496
-0.0206506
1.00242
-0.0165843
1.00904
-0.010981
1.01508
-0.00774949
1.02067
-0.00552018
1.0259
-0.00391653
1.03086
-0.00279203
1.03561
-0.00200901
1.04022
-0.00147462
1.04474
-0.00110275
1.0492
-0.000837594
1.05365
-0.00062929
1.05811
-0.000447161
1.0626
-0.000280772
1.06714
0.000204516
1.07174
0.000534629
1.07642
0.000801621
1.08118
0.000955944
1.08602
0.00214054
1.09095
0.00241689
1.09597
0.00314256
0.00344897
1.10109
0.330516
-1.1449
-0.200757
0.44521
-1.00058
0.54505
-0.860137
0.630876
-0.73242
0.703917
-0.617723
0.765578
-0.516552
0.817302
-0.428613
0.860485
-0.353128
0.896425
-0.289052
0.926296
-0.235193
0.951139
-0.190363
0.971872
-0.153429
0.989285
-0.12322
1.00405
-0.0987305
1.01674
-0.079068
1.02783
-0.0634444
1.03773
-0.0511639
1.04677
-0.0416329
1.05523
-0.0343153
1.06335
-0.0287676
1.07132
-0.0245498
1.07844
-0.0181039
1.08501
-0.0143156
1.09113
-0.011641
1.0969
-0.00969025
1.10241
-0.00830151
1.10772
-0.00732405
1.1129
-0.00665337
1.11799
-0.00619354
1.12304
-0.00588009
1.12806
-0.00565595
1.1331
-0.00548414
1.13817
-0.00534886
1.14328
-0.00490944
1.14846
-0.00463864
1.1537
-0.00444074
1.15902
-0.00436291
1.16441
-0.0032536
1.16989
-0.00306049
1.17545
-0.00241727
-0.00219337
1.18109
0.349575
-1.28504
-0.209431
0.473421
-1.12443
0.581216
-0.967931
0.673867
-0.825071
0.752703
-0.696559
0.819238
-0.583087
0.875028
-0.484403
0.921575
-0.399675
0.960281
-0.327758
0.992412
-0.267324
1.01909
-0.217043
1.04131
-0.175648
1.05992
-0.141833
1.07566
-0.114467
1.08914
-0.0925493
1.10089
-0.0751947
1.11135
-0.0616241
1.12089
-0.0511718
1.12982
-0.0432414
1.13839
-0.0373387
1.14682
-0.0329829
1.1544
-0.0256851
1.16143
-0.0213432
1.16802
-0.0182295
1.17427
-0.0159395
1.18026
-0.0142949
1.18607
-0.0131311
1.19175
-0.0123314
1.19734
-0.01179
1.2029
-0.0114333
1.20844
-0.0111971
1.21399
-0.0110379
1.21958
-0.0109347
1.22521
-0.0105425
1.2309
-0.01033
1.23666
-0.0101984
1.24249
-0.0101923
1.24839
-0.0091581
1.25437
-0.00904187
1.26043
-0.00847601
-0.00832738
1.26657
0.370599
-1.43649
-0.219157
0.504409
-1.25824
0.620869
-1.08439
0.720963
-0.925165
0.806125
-0.781721
0.877987
-0.65495
0.938228
-0.544643
0.988467
-0.449915
1.03022
-0.369505
1.06484
-0.301946
1.09355
-0.245754
1.11741
-0.199515
1.13736
-0.161779
1.15418
-0.131283
1.16853
-0.106908
1.18101
-0.087667
1.19207
-0.0726899
1.20214
-0.0612346
1.21153
-0.0526399
1.22055
-0.0463569
1.22943
-0.0418607
1.23744
-0.0336908
1.24488
-0.0287888
1.25189
-0.0252351
1.25856
-0.0226085
1.26497
-0.0207126
1.27121
-0.0193682
1.27733
-0.0184458
1.28336
-0.0178287
1.28937
-0.0174343
1.29536
-0.0171907
1.30137
-0.0170481
1.30741
-0.0169797
1.31351
-0.016638
1.31966
-0.0164849
1.32589
-0.0164194
1.33218
-0.0164833
1.33854
-0.015526
1.34499
-0.0154832
1.3515
-0.0149923
-0.0149145
1.35809
0.393689
-1.60022
-0.229953
0.538347
-1.4029
0.664247
-1.21029
0.772454
-1.03337
0.864518
-0.873785
0.942201
-0.732633
1.00731
-0.609753
1.0616
-0.504199
1.10668
-0.414592
1.14404
-0.339308
1.17499
-0.276701
1.20068
-0.225201
1.2221
-0.183198
1.24011
-0.149291
1.25543
-0.122235
1.2687
-0.10093
1.28042
-0.0844113
1.29104
-0.0718538
1.30092
-0.0625267
1.31039
-0.0558224
1.3197
-0.0511686
1.3281
-0.0420957
1.33593
-0.0366179
1.34331
-0.0326157
1.35035
-0.0296491
1.35714
-0.0275022
1.36375
-0.0259798
1.37025
-0.0249385
1.37667
-0.0242505
1.38306
-0.0238233
1.38944
-0.0235771
1.39585
-0.0234553
1.4023
-0.0234255
1.4088
-0.0231384
1.41536
-0.0230476
1.42199
-0.0230497
1.42869
-0.0231836
1.43547
-0.0223068
1.44232
-0.0223363
1.44925
-0.0219202
-0.021911
1.45625
0.418969
-1.77734
-0.241849
0.57544
-1.55937
0.711625
-1.34648
0.828678
-1.15043
0.928274
-0.973381
1.01231
-0.816674
1.08275
-0.680187
1.14146
-0.562912
1.19021
-0.463339
1.23058
-0.379679
1.26399
-0.31011
1.29168
-0.252889
1.31472
-0.206242
1.33404
-0.168614
1.35043
-0.138625
1.36456
-0.115057
1.37699
-0.0968414
1.3882
-0.0830641
1.39859
-0.0729199
1.40851
-0.0657379
1.41823
-0.0608944
1.42702
-0.0508776
1.4352
-0.0447992
1.44291
-0.0403326
1.45028
-0.0370165
1.45739
-0.0346138
1.46433
-0.0329121
1.47114
-0.0317532
1.47789
-0.030997
1.4846
-0.0305407
1.49132
-0.0302961
1.49807
-0.0301994
1.50485
-0.0302121
1.5117
-0.0299845
1.51861
-0.0299596
1.52559
-0.030032
1.53265
-0.0302377
1.53979
-0.029446
1.547
-0.0295485
1.55429
-0.0292085
-0.0292675
1.56164
0.446584
-1.96904
-0.254887
0.615927
-1.72871
0.763323
-1.49387
0.890024
-1.27713
0.997841
-1.0812
1.08883
-0.907659
1.16508
-0.756444
1.22864
-0.626474
1.2814
-0.516098
1.32507
-0.423351
1.36118
-0.34622
1.39107
-0.282778
1.4159
-0.231069
1.43667
-0.189379
1.45422
-0.156179
1.46929
-0.130125
1.48248
-0.110035
1.49432
-0.0949015
1.50524
-0.083838
1.5156
-0.0761056
1.52574
-0.0710255
1.53487
-0.0600141
1.54337
-0.0533013
1.55139
-0.0483465
1.55904
-0.0446652
1.56642
-0.0419971
1.57362
-0.0401109
1.5807
-0.0388324
1.58771
-0.0380083
1.59469
-0.037525
1.60168
-0.037285
1.6087
-0.037217
1.61576
-0.0372762
1.62289
-0.0371129
1.63009
-0.0371581
1.63736
-0.0373045
1.64471
-0.0375846
1.65215
-0.0368835
1.65966
-0.0370609
1.66725
-0.0368
-0.0369281
1.67491
0.476704
-2.17662
-0.269121
0.660078
-1.91208
0.819699
-1.65349
0.956928
-1.41436
1.07372
-1.19799
1.17229
-1.00623
1.25492
-0.839068
1.32379
-0.695343
1.38094
-0.573253
1.42823
-0.470643
1.46731
-0.385296
1.49962
-0.315082
1.5264
-0.257855
1.54875
-0.211724
1.56757
-0.175005
1.58366
-0.146213
1.59768
-0.124049
1.61018
-0.107402
1.62164
-0.0952975
1.63245
-0.0869247
1.64297
-0.0815446
1.65244
-0.0694788
1.66123
-0.0620887
1.66949
-0.0566145
1.67737
-0.0525458
1.68497
-0.0495972
1.69238
-0.0475171
1.69966
-0.0461136
1.70687
-0.0452195
1.71406
-0.0447092
1.72125
-0.0444755
1.72847
-0.0444391
1.73574
-0.0445482
1.74308
-0.044454
1.7505
-0.0445735
1.75799
-0.0447979
1.76556
-0.0451559
1.77323
-0.0445515
1.78098
-0.0448067
1.78881
-0.0446286
-0.044828
1.79671
0.50952
-2.40153
-0.284615
0.708199
-2.11076
0.881161
-1.82645
1.02988
-1.56308
1.15648
-1.32459
1.26335
-1.1131
1.35294
-0.928659
1.42762
-0.770023
1.4896
-0.635226
1.54086
-0.521907
1.58319
-0.427626
1.61814
-0.350038
1.64708
-0.286789
1.67115
-0.2358
1.69136
-0.195217
1.70856
-0.163407
1.72345
-0.138942
1.73665
-0.120599
1.74866
-0.107312
1.75993
-0.0981894
1.77081
-0.0924284
1.78057
-0.0792386
1.7896
-0.0711192
1.79807
-0.0650864
1.80613
-0.0606016
1.81388
-0.0573521
1.82143
-0.055064
1.82884
-0.0535267
1.83618
-0.0525576
1.84349
-0.0520181
1.85081
-0.0517908
1.85816
-0.0517876
1.86556
-0.0519494
1.87303
-0.0519285
1.88058
-0.0521267
1.88822
-0.0524333
1.89594
-0.052873
1.90376
-0.0523718
1.91166
-0.0527086
1.91965
-0.0526179
-0.0528918
1.92771
0.545247
-2.64533
-0.301439
0.760632
-2.32615
0.94816
-2.01398
1.10944
-1.72435
1.24676
-1.46191
1.3627
-1.22905
1.45992
-1.02588
1.54097
-0.851071
1.60822
-0.702482
1.66384
-0.577526
1.70974
-0.473526
1.7476
-0.387901
1.77889
-0.318076
1.80486
-0.261767
1.82658
-0.216938
1.84497
-0.181795
1.8608
-0.154772
1.87472
-0.134526
1.8873
-0.11989
1.899
-0.109887
1.91021
-0.103644
1.92023
-0.0892512
1.92945
-0.0803408
1.93806
-0.0737019
1.94623
-0.0687655
1.95406
-0.0651889
1.96167
-0.0626741
1.96914
-0.0609901
1.97652
-0.0599378
1.98387
-0.0593647
1.99122
-0.059142
1.9986
-0.0591723
2.00604
-0.0593885
2.01356
-0.0594445
2.02115
-0.0597253
2.02884
-0.0601184
2.03661
-0.0606439
2.04449
-0.0602527
2.05246
-0.0606754
2.06052
-0.0606774
-0.0610296
2.06866
0.584127
-2.90979
-0.319676
0.817759
-2.55978
1.0212
-2.21743
1.19621
-1.89936
1.34525
-1.61095
1.47113
-1.35493
1.57671
-1.13145
1.66474
-0.9391
1.73779
-0.775532
1.79818
-0.637925
1.848
-0.523344
1.88906
-0.428954
1.92292
-0.35194
1.95095
-0.289799
1.97431
-0.240299
1.99399
-0.201471
2.01082
-0.171599
2.0255
-0.149213
2.03865
-0.133034
2.05076
-0.121996
2.06226
-0.115147
2.07247
-0.0994623
2.08182
-0.0896887
2.0905
-0.0823877
2.0987
-0.0769566
2.10653
-0.0730206
2.11411
-0.0702553
2.12153
-0.0684077
2.12885
-0.0672607
2.13613
-0.0666466
2.14341
-0.0664247
2.15073
-0.0664872
2.1581
-0.0667585
2.16555
-0.0668944
2.17308
-0.0672614
2.18071
-0.0677449
2.18843
-0.0683605
2.19626
-0.0680863
2.20419
-0.0685997
2.21221
-0.0687002
-0.0691352
2.22031
0.626428
-3.1968
-0.339415
0.880007
-2.81336
1.10086
-2.43828
1.29088
-2.08938
1.45277
-1.77283
1.58953
-1.49169
1.70427
-1.24619
1.79995
-1.03479
1.87936
-0.854942
1.94501
-0.703572
1.99913
-0.577464
2.04368
-0.473507
2.08037
-0.388629
2.11066
-0.320089
2.13581
-0.265442
2.15687
-0.222533
2.17475
-0.189485
2.19023
-0.164685
2.20393
-0.146741
2.21642
-0.134483
2.22815
-0.126879
2.23849
-0.109803
2.24788
-0.0990823
2.25655
-0.0910535
2.26467
-0.0850766
2.27239
-0.0807421
2.27983
-0.077697
2.28709
-0.0756642
2.29424
-0.0744072
2.30133
-0.073742
2.30842
-0.0735145
2.31554
-0.0736061
2.32271
-0.0739319
2.32997
-0.0741495
2.33731
-0.0746056
2.34475
-0.0751833
2.35228
-0.075893
2.35994
-0.075743
2.36769
-0.0763521
2.37555
-0.0765575
-0.0770806
2.3835
0.672447
-3.50849
-0.360753
0.947852
-3.08876
1.18776
-2.67819
1.39423
-2.29586
1.57018
-1.94878
1.71888
-1.64039
1.84367
-1.37097
1.94776
-1.13888
2.03416
-0.94134
2.10558
-0.774987
2.16442
-0.636311
2.21282
-0.521903
2.2526
-0.428413
2.28536
-0.352843
2.31244
-0.292519
2.33499
-0.245085
2.35399
-0.208488
2.37027
-0.180965
2.38453
-0.160996
2.39735
-0.147302
2.40923
-0.138764
2.41961
-0.120185
2.42895
-0.108422
2.43749
-0.0995891
2.44542
-0.0930068
2.4529
-0.0882273
2.46007
-0.084867
2.46703
-0.0826224
2.47386
-0.081236
2.48062
-0.0805061
2.48737
-0.0802641
2.49415
-0.0803797
2.50097
-0.0807576
2.50788
-0.0810578
2.51488
-0.0816051
2.52198
-0.0822804
2.52917
-0.0830881
2.5365
-0.0830696
2.54393
-0.0837797
2.55147
-0.0840967
-0.0847136
2.5591
0.722515
-3.84721
-0.383798
1.02182
-3.38807
1.2826
-2.93897
1.50711
-2.52036
1.69849
-2.14017
1.86029
-1.80219
1.99612
-1.5068
2.10945
-1.25222
2.20353
-1.03542
2.28129
-0.852746
2.34534
-0.700356
2.39795
-0.574521
2.44113
-0.47159
2.47658
-0.388289
2.50575
-0.321696
2.52991
-0.269238
2.55009
-0.22867
2.56719
-0.198068
2.58197
-0.175774
2.59506
-0.160391
2.607
-0.150704
2.61731
-0.130498
2.62647
-0.117584
2.63474
-0.107859
2.64234
-0.100602
2.64943
-0.0953225
2.65617
-0.0916044
2.66266
-0.0891157
2.669
-0.0875757
2.67526
-0.0867636
2.68149
-0.0864953
2.68774
-0.0866271
2.69404
-0.087053
2.70041
-0.0874352
2.70688
-0.088075
2.71345
-0.0888504
2.72013
-0.0897598
2.72694
-0.0898801
2.73385
-0.0906968
2.74089
-0.0911327
-0.0918496
2.74802
0.777
-4.21554
-0.408667
1.10251
-3.71358
1.38618
-3.22264
1.63047
-2.76465
1.83879
-2.34849
2.01498
-1.97838
2.16295
-1.65477
2.28645
-1.37572
2.38899
-1.13796
2.47373
-0.937487
2.5435
-0.77012
2.60075
-0.631779
2.64765
-0.518488
2.68604
-0.426676
2.71749
-0.353152
2.74336
-0.295106
2.76478
-0.250089
2.78272
-0.216003
2.79798
-0.191036
2.81126
-0.173668
2.82313
-0.162577
2.83324
-0.14061
2.84208
-0.126418
2.84992
-0.115701
2.85701
-0.107688
2.86353
-0.101846
2.86964
-0.0977197
2.87548
-0.0949482
2.88113
-0.0932253
2.88667
-0.0923093
2.89218
-0.091999
2.89768
-0.0921366
2.90324
-0.0926042
2.90887
-0.0930663
2.91459
-0.0937985
2.92042
-0.0946759
2.92635
-0.0956901
2.93242
-0.0959565
2.93861
-0.0968854
2.94493
-0.0974476
-0.0982714
2.95135
0.836308
-4.61637
-0.435484
1.19057
-4.06784
1.49937
-3.53144
1.76539
-3.03066
1.99233
-2.57543
2.18435
-2.17041
2.34568
-1.81609
2.48038
-1.51042
2.59224
-1.24981
2.68467
-1.02992
2.76073
-0.846184
2.8231
-0.694142
2.87408
-0.569472
2.91568
-0.468277
2.94961
-0.387079
2.97732
-0.322811
3.00003
-0.272804
3.01879
-0.234767
3.03449
-0.206729
3.04785
-0.187028