/*--------------------------------*- C++ -*----------------------------------*\
| =========                 |                                                 |
| \\      /  F ield         | OpenFOAM: The Open Source CFD Toolbox           |
|  \\    /   O peration     | Version:  2312                                  |
|   \\  /    A nd           | Website:  www.openfoam.com                      |
|    \\/     M anipulation  |                                                 |
\*---------------------------------------------------------------------------*/
FoamFile
{
    version     2.0;
    format      ascii;
    arch        "LSB;label=32;scalar=64";
    class       volScalarField;
    location    "150";
    object      turbulenceProperties:I;
}
// * * * * * * * * * * * * * * * * * * * * * * * * * * * * * * * * * * * * * //

dimensions      [0 0 0 0 0 0 0];

internalField   nonuniform List<scalar> 
11040
(
0.0268412
0.034319
0.0506308
0.0866114
0.195694
0.831497
1
0.673926
0.633517
0.653274
0.609932
0.512524
0.435521
0.386959
0.357526
0.339218
0.327129
0.318611
0.312393
0.307845
0.304797
0.303537
0.302905
0.302201
0.301683
0.301644
0.302141
0.303183
0.304803
0.307064
0.310082
0.314031
0.319163
0.325857
0.334707
0.34632
0.360222
0.355765
0.376617
0.418183
0.805018
0.0110484
0.00998023
0.0116042
0.0187018
0.0336341
0.0678054
0.118972
0.185232
0.27151
0.345156
0.354051
0.327996
0.293914
0.262087
0.235708
0.214813
0.198289
0.185084
0.174623
0.166451
0.160453
0.156855
0.154499
0.152263
0.150469
0.149494
0.149445
0.150319
0.152143
0.154992
0.159017
0.16446
0.171675
0.181181
0.193793
0.210461
0.232943
0.260702
0.306147
0.346972
0.751674
0.009056
0.00649804
0.00536622
0.00429661
0.00375408
0.0110389
0.0224791
0.0373515
0.0551729
0.0744475
0.0940424
0.113157
0.130941
0.146241
0.158021
0.165581
0.168769
0.168191
0.164997
0.160707
0.156739
0.153888
0.15222
0.150983
0.150189
0.149956
0.150254
0.151092
0.152521
0.15464
0.157587
0.161567
0.166863
0.173864
0.183167
0.195473
0.212149
0.233825
0.267445
0.294402
0.431519
0.00817031
0.0065099
0.00537585
0.00467952
0.00410207
0.00309823
0.00227261
0.0028289
0.0060112
0.00956312
0.0131217
0.0168312
0.0215553
0.0281944
0.0371527
0.0482564
0.060944
0.0743946
0.0877103
0.100005
0.110693
0.119133
0.12509
0.128935
0.131431
0.133353
0.135118
0.137006
0.139226
0.141944
0.145313
0.149495
0.154684
0.161142
0.169249
0.179426
0.192516
0.208823
0.232607
0.25286
0.324443
0.00710876
0.0059985
0.00511671
0.00439986
0.00390468
0.00349881
0.00289919
0.0020972
0.00128064
0.000642985
0.000277927
0.000185297
0.000241815
0.000323492
0.000429455
0.00120642
0.00388998
0.00822718
0.0144693
0.0228594
0.0334647
0.0452382
0.0568137
0.0676126
0.0774217
0.086265
0.0941853
0.101287
0.10774
0.113755
0.11957
0.125441
0.131639
0.138469
0.146283
0.155407
0.166389
0.17942
0.196995
0.213404
0.255537
0.00603551
0.00535931
0.00473635
0.00417139
0.003719
0.00341105
0.00319244
0.00295988
0.00266417
0.00233581
0.00203735
0.00180164
0.00162181
0.00144768
0.0012489
0.000696438
0.000627601
7.07644e-05
0.00441154
0.000286433
0.00185817
0.00287207
0.00619081
0.011329
0.0174943
0.0244727
0.0320982
0.0402164
0.0487164
0.0575161
0.0665725
0.0758788
0.0854614
0.0954204
0.105886
0.116976
0.128935
0.141897
0.157187
0.171947
0.20053
0.00510535
0.00469719
0.00433602
0.00397126
0.00361988
0.00330894
0.00305864
0.00286415
0.00270013
0.0025432
0.00238372
0.00222198
0.00206655
0.00193105
0.00182788
0.00174751
0.00167382
0.00155202
0.00134807
0.000904838
0.000115173
0.00178881
1.63105e-05
0.00246096
0.00248371
0.00234584
0.00307617
0.00397804
0.00636263
0.0102098
0.0152357
0.021385
0.0286924
0.0372444
0.0471157
0.058334
0.0709119
0.0849002
0.100742
0.116653
0.141266
0.00430462
0.00405437
0.00384927
0.00362258
0.00337795
0.00314192
0.00293035
0.00274504
0.00257872
0.00242275
0.00227062
0.00211859
0.001969
0.0018316
0.00171633
0.00162896
0.00156386
0.00151874
0.00147611
0.00143357
0.00136245
0.00126674
0.00110833
0.000954506
0.000577536
0.000772265
0.00119004
0.00196116
0.000321793
0.00234327
0.00197366
0.00176813
0.00300959
0.00479827
0.00802641
0.0129654
0.0197338
0.028555
0.0397923
0.0521985
0.0718937
0.00362949
0.00347249
0.00335997
0.00323876
0.00309372
0.00293484
0.00277532
0.00262246
0.00247675
0.00233548
0.00219617
0.00205757
0.00192165
0.0017945
0.00168276
0.00159048
0.00151726
0.0014599
0.00141452
0.00137897
0.0013554
0.00132641
0.0012877
0.00122749
0.00118311
0.00111906
0.00102118
0.000913913
0.000754393
0.000564039
8.74972e-05
0.000507653
0.000926637
0.00166584
0.0003775
0.00114561
0.00199817
0.00347932
0.00656192
0.0108906
0.0207022
0.0030603
0.00295972
0.00289791
0.00283825
0.00276222
0.00266819
0.00256223
0.00245138
0.00233906
0.00222593
0.00211184
0.00199673
0.00188217
0.00177226
0.0016718
0.00158446
0.00151141
0.00145147
0.00140258
0.00136241
0.00133032
0.00130409
0.00128201
0.00126222
0.00124777
0.00123907
0.00122924
0.00120834
0.00117862
0.00113778
0.00111075
0.00103931
0.000915473
0.000732681
0.000478575
0.000375813
0.000477612
0.000830367
0.00159546
0.0024516
0.00143776
0.00258171
0.00251619
0.00248208
0.00245612
0.0024235
0.00237803
0.00231909
0.00224923
0.00217142
0.00208771
0.00199998
0.00190907
0.00181642
0.00172511
0.00163874
0.00156051
0.0014923
0.00143424
0.00138536
0.0013442
0.00130963
0.00128082
0.00125624
0.00123518
0.00121798
0.00120547
0.00119782
0.00119435
0.00119499
0.00119781
0.0012054
0.00121152
0.00120884
0.00118559
0.00112482
0.00101705
0.000896311
0.000722221
0.000336144
0.000157681
0.000277152
0.00217893
0.00213554
0.00211667
0.00210768
0.00209842
0.00208273
0.00205722
0.00202117
0.0019753
0.00192107
0.00186016
0.00179406
0.0017242
0.00165302
0.00158322
0.00151738
0.00145738
0.00140414
0.00135768
0.00131742
0.00128293
0.00125397
0.00122948
0.00120834
0.00119047
0.00117607
0.00116516
0.00115745
0.00115272
0.00115055
0.00115108
0.00115421
0.00115973
0.00116643
0.00117349
0.00117964
0.00117715
0.00116461
0.00109926
0.000993829
0.000767029
0.00183976
0.00181061
0.00180031
0.00179955
0.00180177
0.00180235
0.00179769
0.00178557
0.00176505
0.00173609
0.00169962
0.00165662
0.00160844
0.00155694
0.00150414
0.00145208
0.00140249
0.00135658
0.00131497
0.00127771
0.00124492
0.00121696
0.0011933
0.00117291
0.00115546
0.0011409
0.00112912
0.00111984
0.00111276
0.00110754
0.00110384
0.00110138
0.00109997
0.00109954
0.00109993
0.00110129
0.00110333
0.0011073
0.00111186
0.00111237
0.00108992
0.00155376
0.00153394
0.00152854
0.00153146
0.00153856
0.00154669
0.00155297
0.00155509
0.00155151
0.00154131
0.00152445
0.00150126
0.0014724
0.00143913
0.00140291
0.00136525
0.00132756
0.00129102
0.00125645
0.00122427
0.00119498
0.00116936
0.00114731
0.00112805
0.00111129
0.00109691
0.00108474
0.00107457
0.00106611
0.00105909
0.0010532
0.00104814
0.0010436
0.00103928
0.00103492
0.00103023
0.00102499
0.00101928
0.00101378
0.00100707
0.00100569
0.00131223
0.00129868
0.00129615
0.00130049
0.00130913
0.00132003
0.0013311
0.00134048
0.00134667
0.0013485
0.00134538
0.00133706
0.00132363
0.00130564
0.00128397
0.00125967
0.00123375
0.00120717
0.00118075
0.00115503
0.00113067
0.00110868
0.00108923
0.0010718
0.00105625
0.00104249
0.00103034
0.00101965
0.0010102
0.00100178
0.000994152
0.000987068
0.000980292
0.000973574
0.000966667
0.000959338
0.000951321
0.000942389
0.000932444
0.000920203
0.000910491
0.0011082
0.00109897
0.00109811
0.00110268
0.00111121
0.00112238
0.00113472
0.00114684
0.00115757
0.00116584
0.0011709
0.00117227
0.00116968
0.00116319
0.00115309
0.00113999
0.00112454
0.0011074
0.00108922
0.0010705
0.00105187
0.00103436
0.0010183
0.0010034
0.000989674
0.000977087
0.000965539
0.000954907
0.000945059
0.000935842
0.000927091
0.000918631
0.000910291
0.000901888
0.000893246
0.000884216
0.000874629
0.000864347
0.000853226
0.000840543
0.000829163
0.000936867
0.000930581
0.000930611
0.000934872
0.00094258
0.000952906
0.000964782
0.000977212
0.000989321
0.00100028
0.00100941
0.0010162
0.00102025
0.00102135
0.00101947
0.00101478
0.00100759
0.000998329
0.000987406
0.000975192
0.000962158
0.00094919
0.000936716
0.00092462
0.000913024
0.000901962
0.000891402
0.000881287
0.000871547
0.000862095
0.000852835
0.000843656
0.000834461
0.000825132
0.00081556
0.000805668
0.000795374
0.000784604
0.000773278
0.000761059
0.000749752
0.000797514
0.000793124
0.000793616
0.000797443
0.000804236
0.000813438
0.000824244
0.000835908
0.000847786
0.000859258
0.00086978
0.000878909
0.000886271
0.000891582
0.000894668
0.000895479
0.000894064
0.000890581
0.000885277
0.000878365
0.00087013
0.000861242
0.000852112
0.00084275
0.000833344
0.00082398
0.000814685
0.000805458
0.000796282
0.000787129
0.000777956
0.000768708
0.000759344
0.000749801
0.000740022
0.000729987
0.00071968
0.000709059
0.000698104
0.000686668
0.00067586
0.000687109
0.000683941
0.000684663
0.000688057
0.000694005
0.00070212
0.000711761
0.000722341
0.000733366
0.000744358
0.000754885
0.000764586
0.000773139
0.000780263
0.000785748
0.000789453
0.000791326
0.000791377
0.000789684
0.000786376
0.000781617
0.000775865
0.000769453
0.000762453
0.000755066
0.000747403
0.000739525
0.000731467
0.000723251
0.000714888
0.000706373
0.00069769
0.00068884
0.000679795
0.000670531
0.00066106
0.000651407
0.000641538
0.000631458
0.000621129
0.0006112
0.000599126
0.000596754
0.000597513
0.000600449
0.000605598
0.000612675
0.000621148
0.000630536
0.000640447
0.000650501
0.000660354
0.000669715
0.000678322
0.000685934
0.000692346
0.000697405
0.000701008
0.000703096
0.00070366
0.000702717
0.000700339
0.00069684
0.000692481
0.000687352
0.000681637
0.000675454
0.000668879
0.000661974
0.000654787
0.000647351
0.00063969
0.000631816
0.000623755
0.000615504
0.000607061
0.000598455
0.000589738
0.000580873
0.000571877
0.000562749
0.000553963
0.000527214
0.000525355
0.000526054
0.000528567
0.000533016
0.00053918
0.000546607
0.000554891
0.000563708
0.000572751
0.000581734
0.000590422
0.000598598
0.000606056
0.000612616
0.000618129
0.000622479
0.000625583
0.000627391
0.000627873
0.000627032
0.00062506
0.000622155
0.000618419
0.000614017
0.000609056
0.000603615
0.000597767
0.000591572
0.000585076
0.00057832
0.000571331
0.00056415
0.00055679
0.00054926
0.000541598
0.000533871
0.00052604
0.000518134
0.00051012
0.000502562
0.000467345
0.000465834
0.000466445
0.000468594
0.000472448
0.000477827
0.000484335
0.000491628
0.000499428
0.000507478
0.000515539
0.000523415
0.000530926
0.000537899
0.000544179
0.000549634
0.000554153
0.000557645
0.000560049
0.000561312
0.000561406
0.000560444
0.000558567
0.000555866
0.000552483
0.000548516
0.000544043
0.000539135
0.000533859
0.000528265
0.000522399
0.000516297
0.000510008
0.000503551
0.000496942
0.000490222
0.000483463
0.000476622
0.000469743
0.000462724
0.000456361
0.000416731
0.000415463
0.000415979
0.00041782
0.000421171
0.000425878
0.000431595
0.000438018
0.000444911
0.000452051
0.000459237
0.0004663
0.000473088
0.000479456
0.000485272
0.000490418
0.000494796
0.000498318
0.00050092
0.000502541
0.000503144
0.000502794
0.000501597
0.000499629
0.00049701
0.000493822
0.000490136
0.000486022
0.000481545
0.000476757
0.000471704
0.000466425
0.000460971
0.000455364
0.000449622
0.000443784
0.000437923
0.000431994
0.000426053
0.000419919
0.000414665
0.000373408
0.000372319
0.000372746
0.000374331
0.00037726
0.000381397
0.000386433
0.000392101
0.000398194
0.000404518
0.000410899
0.00041719
0.000423263
0.000428993
0.000434266
0.000438982
0.000443055
0.000446405
0.000448971
0.000450696
0.000451536
0.000451535
0.000450776
0.000449322
0.00044727
0.000444688
0.000441641
0.000438194
0.000434404
0.000430327
0.000426002
0.000421465
0.000416769
0.000411936
0.000406984
0.000401947
0.000396899
0.00039179
0.000386685
0.000381337
0.000377071
0.000335938
0.000334987
0.000335336
0.000336711
0.000339285
0.000342938
0.000347391
0.000352407
0.000357801
0.000363404
0.000369064
0.000374652
0.000380056
0.000385171
0.000389897
0.00039415
0.000397852
0.000400937
0.000403348
0.000405031
0.000405948
0.00040613
0.000405642
0.000404538
0.000402899
0.000400784
0.000398247
0.000395347
0.000392135
0.00038866
0.000384963
0.000381072
0.000377037
0.000372881
0.00036862
0.000364285
0.000359943
0.000355548
0.00035117
0.00034651
0.000343088
0.000303247
0.000302406
0.000302692
0.000303895
0.000306175
0.000309416
0.000313369
0.000317822
0.000322609
0.000327581
0.000332601
0.000337559
0.000342355
0.000346897
0.000351102
0.000354895
0.000358211
0.000360991
0.000363187
0.000364751
0.00036565
0.000365907
0.000365581
0.000364718
0.000363385
0.00036163
0.000359502
0.00035705
0.000354321
0.000351354
0.000348195
0.000344866
0.000341405
0.000337839
0.000334182
0.000330461
0.000326735
0.000322962
0.000319213
0.000315156
0.00031244
0.000274511
0.000273764
0.000274
0.000275067
0.0002771
0.000279993
0.000283519
0.000287487
0.000291748
0.000296168
0.000300627
0.000305025
0.000309278
0.000313303
0.000317029
0.000320391
0.000323335
0.000325809
0.000327772
0.000329184
0.000330016
0.000330291
0.000330061
0.000329366
0.000328259
0.000326785
0.000324983
0.000322897
0.000320569
0.000318033
0.000315327
0.000312474
0.000309505
0.000306444
0.000303304
0.000300107
0.000296906
0.000293664
0.000290449
0.000286919
0.000284769
0.000249089
0.000248423
0.000248625
0.000249584
0.000251414
0.000254012
0.000257173
0.000260724
0.000264529
0.000268469
0.000272437
0.000276344
0.000280114
0.000283678
0.000286972
0.000289942
0.00029254
0.000294723
0.000296458
0.000297708
0.000298452
0.000298711
0.000298535
0.000297956
0.000297021
0.000295767
0.000294229
0.000292445
0.000290451
0.000288277
0.000285955
0.000283507
0.000280958
0.000278328
0.000275631
0.000272884
0.000270134
0.000267346
0.000264589
0.000261522
0.000259825
0.000226472
0.00022588
0.000226061
0.000226938
0.000228601
0.000230951
0.000233801
0.000236993
0.000240404
0.000243927
0.000247466
0.000250943
0.00025429
0.000257446
0.000260356
0.000262975
0.000265261
0.000267179
0.0002687
0.000269795
0.000270446
0.000270674
0.000270528
0.000270036
0.000269236
0.00026816
0.00026684
0.000265307
0.000263592
0.000261723
0.000259723
0.000257619
0.000255428
0.000253163
0.000250842
0.000248479
0.000246111
0.000243711
0.00024134
0.000238678
0.000237333
0.000206252
0.000205728
0.000205902
0.000206718
0.000208245
0.000210387
0.000212972
0.000215856
0.000218927
0.000222089
0.000225255
0.000228356
0.000231332
0.00023413
0.000236703
0.000239011
0.000241021
0.000242701
0.000244029
0.000244981
0.000245542
0.000245736
0.000245608
0.000245181
0.000244488
0.000243559
0.000242419
0.000241097
0.000239618
0.000238007
0.000236283
0.00023447
0.000232583
0.000230632
0.000228633
0.000226598
0.000224557
0.00022249
0.00022045
0.000218141
0.000217069
0.000188095
0.000187638
0.000187815
0.00018859
0.000190009
0.000191977
0.000194337
0.000196956
0.000199734
0.000202582
0.000205424
0.000208197
0.00021085
0.000213335
0.000215613
0.000217649
0.000219416
0.000220888
0.000222045
0.000222871
0.000223352
0.000223513
0.000223397
0.000223023
0.000222419
0.000221612
0.000220624
0.000219479
0.000218201
0.000216809
0.000215322
0.000213756
0.000212128
0.000210445
0.000208721
0.000206965
0.000205204
0.000203419
0.000201659
0.00019966
0.000198793
0.000171729
0.000171336
0.000171527
0.000172278
0.000173611
0.000175435
0.000177604
0.000179997
0.000182521
0.000185098
0.000187658
0.000190146
0.000192517
0.00019473
0.000196751
0.000198551
0.000200107
0.000201397
0.000202407
0.000203123
0.000203535
0.000203667
0.000203561
0.000203233
0.000202707
0.000202006
0.00020115
0.00020016
0.000199055
0.000197853
0.000196569
0.000195215
0.000193812
0.000192363
0.000190874
0.00018936
0.00018784
0.000186301
0.000184784
0.000183057
0.000182351
0.000156927
0.000156597
0.000156811
0.000157551
0.000158819
0.000160524
0.000162531
0.00016473
0.000167035
0.000169376
0.000171692
0.000173933
0.000176059
0.000178035
0.000179834
0.000181429
0.000182802
0.000183937
0.000184821
0.000185444
0.000185798
0.000185906
0.000185811
0.000185523
0.000185064
0.000184454
0.00018371
0.000182851
0.000181894
0.000180853
0.000179742
0.000178573
0.00017736
0.000176108
0.000174824
0.000173517
0.000172204
0.000170876
0.000169565
0.000168076
0.000167484
0.000143497
0.00014323
0.000143476
0.000144218
0.000145438
0.000147044
0.000148914
0.000150946
0.000153062
0.000155199
0.000157301
0.000159327
0.000161241
0.000163013
0.000164618
0.000166038
0.000167255
0.000168257
0.000169035
0.000169582
0.000169891
0.000169984
0.000169902
0.000169655
0.000169259
0.000168733
0.000168094
0.000167355
0.000166532
0.000165637
0.000164682
0.000163677
0.000162634
0.000161559
0.000160456
0.000159333
0.000158205
0.000157063
0.000155936
0.000154657
0.000154169
0.000131279
0.000131075
0.000131361
0.000132116
0.0001333
0.000134825
0.000136578
0.000138465
0.000140417
0.000142376
0.000144294
0.000146133
0.000147863
0.000149458
0.000150898
0.000152167
0.000153251
0.000154141
0.00015483
0.000155314
0.000155586
0.000155668
0.000155598
0.000155384
0.000155041
0.000154585
0.00015403
0.000153391
0.000152678
0.000151904
0.000151077
0.000150208
0.000149307
0.000148378
0.000147426
0.000146458
0.000145484
0.0001445
0.000143527
0.000142432
0.000141997
0.000120137
0.000119996
0.000120328
0.000121103
0.000122264
0.000123721
0.000125373
0.000127134
0.000128942
0.000130746
0.000132503
0.000134181
0.000135752
0.000137195
0.000138494
0.000139634
0.000140607
0.000141405
0.000142024
0.00014246
0.00014271
0.000142795
0.00014275
0.000142581
0.000142301
0.000141924
0.000141463
0.000140928
0.00014033
0.000139678
0.000138981
0.000138247
0.000137483
0.000136696
0.00013589
0.000135067
0.000134238
0.0001334
0.000132572
0.000131639
0.000131297
0.000109955
0.000109878
0.000110261
0.000111062
0.000112204
0.000113603
0.000115167
0.000116817
0.000118499
0.000120167
0.000121784
0.000123321
0.000124756
0.00012607
0.000127248
0.000128281
0.00012916
0.00012988
0.000130438
0.000130831
0.000131058
0.000131134
0.000131096
0.000130947
0.000130699
0.000130367
0.000129962
0.000129493
0.000128972
0.000128406
0.000127803
0.000127168
0.000126508
0.00012583
0.000125136
0.000124429
0.000123715
0.000122997
0.000122283
0.000121498
0.000121149
0.000100635
0.000100622
0.00010106
0.000101887
0.000103013
0.000104358
0.000105839
0.00010739
0.000108961
0.000110511
0.000112007
0.000113423
0.000114741
0.000115945
0.000117023
0.000117968
0.000118774
0.000119438
0.000119959
0.000120339
0.000120577
0.000120688
0.000120704
0.000120628
0.000120467
0.000120233
0.000119935
0.00011958
0.000119177
0.000118732
0.000118251
0.000117739
0.000117201
0.000116644
0.000116071
0.000115481
0.000114884
0.00011428
0.000113684
0.000113008
0.000112801
9.20911e-05
9.21415e-05
9.26371e-05
9.34904e-05
9.45981e-05
9.58879e-05
9.72888e-05
9.87439e-05
0.000100211
0.000101656
0.000103049
0.000104365
0.000105586
0.000106699
0.000107693
0.000108562
0.000109301
0.000109907
0.000110378
0.000110713
0.00011091
0.000110984
0.000110966
0.000110862
0.000110682
0.000110438
0.000110142
0.000109803
0.000109428
0.000109024
0.000108596
0.000108149
0.000107685
0.000107211
0.000106727
0.000106233
0.000105733
0.000105231
0.000104728
0.000104204
0.000103873
8.42529e-05
8.43623e-05
8.49093e-05
8.57805e-05
8.68665e-05
8.81032e-05
8.94291e-05
9.07937e-05
9.2161e-05
9.35031e-05
9.4797e-05
9.60233e-05
9.71652e-05
9.8209e-05
9.91447e-05
9.99676e-05
0.000100678
0.000101278
0.000101773
0.000102166
0.000102459
0.000102662
0.000102797
0.000102862
0.000102858
0.000102791
0.000102668
0.000102493
0.000102272
0.000102009
0.00010171
0.00010138
0.000101024
0.000100649
0.000100257
9.98436e-05
9.94228e-05
9.89911e-05
9.85707e-05
9.80612e-05
9.80438e-05
7.7067e-05
7.7229e-05
7.78126e-05
7.86769e-05
7.97176e-05
8.0889e-05
8.21428e-05
8.34334e-05
8.47231e-05
8.59813e-05
8.7185e-05
8.83197e-05
8.93763e-05
9.03468e-05
9.12218e-05
9.19897e-05
9.26387e-05
9.31597e-05
9.35485e-05
9.38072e-05
9.39349e-05
9.39508e-05
9.38895e-05
9.37627e-05
9.35847e-05
9.33694e-05
9.31275e-05
9.28673e-05
9.2595e-05
9.23149e-05
9.20305e-05
9.17442e-05
9.14567e-05
9.11711e-05
9.0886e-05
9.05987e-05
9.03094e-05
9.00254e-05
8.9726e-05
8.94777e-05
8.907e-05
7.04906e-05
7.07055e-05
7.13172e-05
7.21489e-05
7.31037e-05
7.41605e-05
7.52961e-05
7.64847e-05
7.76993e-05
7.89081e-05
8.0077e-05
8.11762e-05
8.2187e-05
8.31044e-05
8.39362e-05
8.46974e-05
8.54035e-05
8.6065e-05
8.66855e-05
8.72605e-05
8.77838e-05
8.82466e-05
8.86546e-05
8.89903e-05
8.92477e-05
8.94275e-05
8.95323e-05
8.95655e-05
8.95318e-05
8.94373e-05
8.92891e-05
8.90931e-05
8.88574e-05
8.85857e-05
8.82898e-05
8.7967e-05
8.76271e-05
8.72671e-05
8.69314e-05
8.64327e-05
8.67227e-05
6.44697e-05
6.47279e-05
6.53637e-05
6.61688e-05
6.70458e-05
6.79775e-05
6.89478e-05
6.99471e-05
7.09749e-05
7.20312e-05
7.31077e-05
7.41834e-05
7.5223e-05
7.61814e-05
7.7012e-05
7.7678e-05
7.81594e-05
7.84555e-05
7.85809e-05
7.85644e-05
7.84197e-05
7.81845e-05
7.79027e-05
7.76019e-05
7.73004e-05
7.7012e-05
7.67465e-05
7.65112e-05
7.63097e-05
7.61435e-05
7.60117e-05
7.59129e-05
7.5843e-05
7.5799e-05
7.57812e-05
7.57847e-05
7.57893e-05
7.58182e-05
7.58094e-05
7.59948e-05
7.53549e-05
5.89483e-05
5.91831e-05
5.97675e-05
6.05076e-05
6.13357e-05
6.22386e-05
6.31774e-05
6.41074e-05
6.49966e-05
6.5832e-05
6.66231e-05
6.73997e-05
6.82031e-05
6.90743e-05
7.00421e-05
7.11158e-05
7.2283e-05
7.35122e-05
7.47613e-05
7.59795e-05
7.71396e-05
7.82031e-05
7.91502e-05
7.9952e-05
8.06045e-05
8.11143e-05
8.1491e-05
8.17455e-05
8.18895e-05
8.19347e-05
8.1892e-05
8.17706e-05
8.15815e-05
8.13307e-05
8.1029e-05
8.0676e-05
8.02884e-05
7.98529e-05
7.94521e-05
7.87549e-05
7.9357e-05
5.39509e-05
5.4094e-05
5.44764e-05
5.49289e-05
5.54622e-05
5.61463e-05
5.70077e-05
5.80318e-05
5.91662e-05
6.03253e-05
6.14052e-05
6.23064e-05
6.2953e-05
6.33059e-05
6.33675e-05
6.31779e-05
6.28022e-05
6.23151e-05
6.17821e-05
6.12661e-05
6.07522e-05
6.02484e-05
5.97492e-05
5.92833e-05
5.88575e-05
5.84768e-05
5.81533e-05
5.79042e-05
5.77431e-05
5.76761e-05
5.7703e-05
5.78225e-05
5.80298e-05
5.83204e-05
5.86915e-05
5.91375e-05
5.9626e-05
6.01886e-05
6.07152e-05
6.1615e-05
6.11143e-05
4.96214e-05
4.9814e-05
5.01227e-05
5.03007e-05
5.03444e-05
5.03456e-05
5.03839e-05
5.05379e-05
5.0897e-05
5.15563e-05
5.25996e-05
5.40737e-05
5.59663e-05
5.82028e-05
6.06637e-05
6.32122e-05
6.57188e-05
6.80762e-05
7.0211e-05
7.20612e-05
7.36559e-05
7.50098e-05
7.61075e-05
7.69638e-05
7.76151e-05
7.80979e-05
7.84364e-05
7.86672e-05
7.87974e-05
7.88575e-05
7.88626e-05
7.88145e-05
7.87153e-05
7.85642e-05
7.83666e-05
7.8122e-05
7.78453e-05
7.75163e-05
7.71984e-05
7.67118e-05
7.68292e-05
4.59765e-05
4.63633e-05
4.69545e-05
4.74472e-05
4.7709e-05
4.77028e-05
4.74149e-05
4.68764e-05
4.61765e-05
4.54543e-05
4.4878e-05
4.46089e-05
4.47507e-05
4.53121e-05
4.62065e-05
4.72907e-05
4.84142e-05
4.94541e-05
5.03309e-05
5.10092e-05
5.14582e-05
5.16766e-05
5.15797e-05
5.12704e-05
5.08219e-05
5.02764e-05
4.96977e-05
4.92102e-05
4.89389e-05
4.88597e-05
4.88742e-05
4.89399e-05
4.90485e-05
4.91915e-05
4.93612e-05
4.95451e-05
4.97542e-05
4.99127e-05
5.02851e-05
4.97534e-05
5.26459e-05
4.26599e-05
4.25718e-05
4.32866e-05
4.54781e-05
4.92112e-05
5.38768e-05
5.87596e-05
6.33886e-05
6.75252e-05
7.10688e-05
7.39914e-05
7.63021e-05
7.80325e-05
7.92266e-05
7.99365e-05
8.02204e-05
8.01399e-05
7.97565e-05
7.91299e-05
7.83069e-05
7.7345e-05
7.64739e-05
7.55551e-05
7.4647e-05
7.37709e-05
7.29258e-05
7.21379e-05
7.12884e-05
7.03509e-05
6.94e-05
6.84579e-05
6.75227e-05
6.65758e-05
6.55898e-05
6.45585e-05
6.3466e-05
6.22834e-05
6.09901e-05
5.94741e-05
5.84514e-05
5.46171e-05
0.403143
0.266041
0.20759
0.175098
0.152653
0.134852
0.119755
0.10631
0.0938772
0.082027
0.0705547
0.0592863
0.0481567
0.0371904
0.026648
0.0170439
0.00885376
0.00310759
0.000136001
0.00111066
0.00013939
0.000122811
0.000230235
0.000302051
0.000325245
0.000311185
0.000285214
0.000267689
0.00025447
0.000243401
0.00023257
0.00022155
0.000210545
0.000199606
0.000188739
0.000178113
0.000167803
0.000158113
0.000149298
0.0001414
0.000134377
0.000128188
0.000122702
0.000117855
0.000113514
0.000113245
0.000111635
0.000106525
0.000101322
9.69219e-05
9.29673e-05
8.96164e-05
8.63183e-05
8.31143e-05
8.00919e-05
7.68299e-05
7.35356e-05
7.2115e-05
6.7367e-05
6.38713e-05
6.04548e-05
5.79843e-05
5.62031e-05
5.32853e-05
5.03876e-05
4.80715e-05
4.57246e-05
4.35351e-05
4.12619e-05
3.8947e-05
3.84629e-05
3.54155e-05
3.52333e-05
2.94155e-05
0.549365
0.37518
0.276613
0.223532
0.189856
0.165868
0.147359
0.131991
0.11848
0.10611
0.0944596
0.0832174
0.0721539
0.0611113
0.0500146
0.0389479
0.0280735
0.0180668
0.00956113
0.00366883
0.000237301
0.00111061
0.000335245
2.59263e-05
0.000180807
0.000256611
0.000289421
0.000287427
0.000266998
0.000248363
0.000233624
0.000221591
0.000210992
0.000200776
0.000190362
0.000179802
0.000169266
0.000159141
0.000149841
0.000141469
0.000134013
0.000127434
0.000121618
0.000116604
0.000111527
0.000115109
0.0001134
0.000110529
0.000106173
0.000101763
9.76808e-05
9.44366e-05
9.14521e-05
8.84112e-05
8.55246e-05
8.22045e-05
7.8797e-05
7.43542e-05
6.76164e-05
6.36548e-05
6.01058e-05
5.73679e-05
5.57123e-05
5.32545e-05
5.02996e-05
4.79011e-05
4.56084e-05
4.34211e-05
4.10286e-05
3.83815e-05
3.78091e-05
3.50167e-05
3.48685e-05
2.92661e-05
0.365564
0.258853
0.247342
0.220813
0.195888
0.175455
0.159058
0.145336
0.133267
0.122225
0.111819
0.101753
0.0918097
0.0818271
0.0716821
0.0613083
0.0506282
0.0398061
0.0290818
0.0190455
0.0105316
0.00438875
0.000667145
0.000140171
0.000246579
0.000141997
0.000156666
0.000196919
0.000238947
0.000256318
0.00024831
0.000231602
0.000215479
0.000202209
0.000190884
0.000180425
0.000170256
0.000160305
0.000150873
0.000142091
0.000134045
0.00012682
0.000120451
0.000115136
0.000109971
0.000107576
0.000107717
0.000107684
0.000105062
0.000101053
9.67197e-05
9.32047e-05
9.03868e-05
8.74343e-05
8.47505e-05
8.16819e-05
7.87934e-05
7.20628e-05
6.75704e-05
6.36666e-05
5.99938e-05
5.67727e-05
5.48731e-05
5.28866e-05
4.9998e-05
4.75243e-05
4.53253e-05
4.32198e-05
4.08714e-05
3.80653e-05
3.70275e-05
3.44657e-05
3.44029e-05
2.91291e-05
0.375652
0.287294
0.187057
0.128373
0.124942
0.129775
0.130651
0.128771
0.125291
0.120744
0.115382
0.109317
0.102621
0.0953514
0.0875387
0.079198
0.0702734
0.0608189
0.0508662
0.0405285
0.0301576
0.0203444
0.0118148
0.00552718
0.00147217
0.000959429
0.0007595
1.29827e-05
0.000162705
0.000177216
0.000198674
0.000219566
0.000224381
0.000215098
0.00019983
0.000185155
0.000172434
0.000161363
0.000151542
0.00014264
0.000134423
0.00012681
0.000119895
0.000113991
0.000109071
0.000101693
9.89642e-05
9.92654e-05
9.84342e-05
9.55259e-05
9.12231e-05
8.72895e-05
8.4255e-05
8.12068e-05
7.86078e-05
7.57944e-05
7.31877e-05
7.0935e-05
6.75548e-05
6.39217e-05
6.02252e-05
5.65796e-05
5.42737e-05
5.2391e-05
4.96289e-05
4.70381e-05
4.48684e-05
4.28972e-05
4.07181e-05
3.79229e-05
3.64967e-05
3.40337e-05
3.40056e-05
2.89813e-05
0.28792
0.269835
0.23583
0.198924
0.160618
0.123579
0.0895515
0.0653778
0.0688334
0.0805146
0.0885964
0.092969
0.094465
0.0937441
0.0912475
0.0872781
0.0819851
0.0755942
0.0682518
0.0600123
0.050989
0.0413755
0.0315264
0.0220085
0.0135328
0.00691473
0.00244314
6.76253e-05
0.000963607
0.000330528
0.000120768
6.52914e-05
0.00015028
0.000173252
0.000188544
0.000192191
0.000183722
0.000170303
0.000156851
0.000145162
0.000135058
0.00012634
0.00011896
0.000112793
0.000108246
0.000100984
9.5464e-05
9.38109e-05
9.36578e-05
9.25018e-05
8.9399e-05
8.56951e-05
8.25593e-05
7.93941e-05
7.65848e-05
7.36685e-05
7.08048e-05
6.92888e-05
6.69365e-05
6.40204e-05
6.06069e-05
5.68121e-05
5.40388e-05
5.20055e-05
4.93289e-05
4.65942e-05
4.43379e-05
4.24194e-05
4.04301e-05
3.77642e-05
3.6145e-05
3.37637e-05
3.37203e-05
2.89278e-05
0.214091
0.207592
0.197413
0.1876
0.175982
0.161975
0.146103
0.1285
0.109422
0.0888636
0.0665361
0.0440902
0.0456998
0.0598414
0.0693631
0.0748534
0.077166
0.0770179
0.0748506
0.0709486
0.0655419
0.0588298
0.0510161
0.0423492
0.0332032
0.0241026
0.0157333
0.00885802
0.00394897
0.000785238
0.000167295
0.000268329
6.71436e-05
2.82631e-05
0.000116835
0.000141322
0.000154777
0.000162541
0.000163942
0.000156129
0.000143743
0.000131465
0.000120827
0.000112128
0.0001063
0.000100191
9.40881e-05
9.01871e-05
8.89623e-05
8.87667e-05
8.73566e-05
8.46943e-05
8.18208e-05
7.8651e-05
7.57136e-05
7.27132e-05
6.95646e-05
6.76051e-05
6.5681e-05
6.35914e-05
6.08417e-05
5.72615e-05
5.41643e-05
5.18226e-05
4.91402e-05
4.62852e-05
4.38825e-05
4.19122e-05
4.00404e-05
3.7517e-05
3.58217e-05
3.3557e-05
3.34852e-05
2.89912e-05
0.146451
0.141287
0.136461
0.134276
0.133295
0.132573
0.131379
0.128994
0.124846
0.118628
0.110207
0.0995019
0.0865552
0.0712975
0.0532622
0.0324667
0.0367054
0.0505638
0.0591143
0.0637729
0.0654105
0.0645683
0.0616328
0.0569086
0.0506849
0.0432617
0.035047
0.0265417
0.0184264
0.0112788
0.00582268
0.00211893
0.000313189
0.000878374
0.000181304
8.58612e-05
6.22421e-05
0.000102803
0.000122594
0.000128137
0.000135253
0.000136496
0.000129858
0.000119951
0.000110768
0.000102459
9.44986e-05
8.77143e-05
8.3846e-05
8.31844e-05
8.33915e-05
8.27735e-05
8.11527e-05
7.83677e-05
7.53032e-05
7.21315e-05
6.88255e-05
6.63163e-05
6.42377e-05
6.26468e-05
6.07069e-05
5.77001e-05
5.45748e-05
5.18896e-05
4.90561e-05
4.60799e-05
4.3546e-05
4.14953e-05
3.96732e-05
3.72495e-05
3.5498e-05
3.33439e-05
3.32314e-05
2.91095e-05
0.0755101
0.0728049
0.0704399
0.0699642
0.0709986
0.0734037
0.0770111
0.0814421
0.0861376
0.090494
0.093913
0.0958243
0.0957585
0.09339
0.0885322
0.0810855
0.0709938
0.0582564
0.0422478
0.0229119
0.0339589
0.0457012
0.0523686
0.0554621
0.0557091
0.0535791
0.049457
0.0437112
0.0367735
0.0291491
0.0214231
0.0142638
0.00824636
0.00394548
0.00110883
0.000729385
0.000747131
0.000222542
3.36192e-05
6.69804e-05
9.26632e-05
9.79405e-05
9.7362e-05
0.000104228
0.000109677
0.000108234
0.000102075
9.36416e-05
8.52763e-05
7.96764e-05
7.75261e-05
7.7588e-05
7.80522e-05
7.71003e-05
7.49392e-05
7.19563e-05
6.85856e-05
6.56533e-05
6.30965e-05
6.14579e-05
6.01029e-05
5.78736e-05
5.51174e-05
5.22743e-05
4.91821e-05
4.59805e-05
4.32869e-05
4.11722e-05
3.93974e-05
3.70631e-05
3.52438e-05
3.31475e-05
3.29352e-05
2.91997e-05
0.022512
0.0213052
0.0201297
0.0196812
0.019839
0.0206197
0.0223407