/*--------------------------------*- C++ -*----------------------------------*\
| =========                 |                                                 |
| \\      /  F ield         | OpenFOAM: The Open Source CFD Toolbox           |
|  \\    /   O peration     | Version:  2312                                  |
|   \\  /    A nd           | Website:  www.openfoam.com                      |
|    \\/     M anipulation  |                                                 |
\*---------------------------------------------------------------------------*/
FoamFile
{
    version     2.0;
    format      ascii;
    arch        "LSB;label=32;scalar=64";
    class       volSymmTensorField;
    location    "150";
    object      turbulenceProperties:devReff;
}
// * * * * * * * * * * * * * * * * * * * * * * * * * * * * * * * * * * * * * //

dimensions      [0 2 -2 0 0 0 0];

internalField   nonuniform List<symmTensor> 
11040
(
(0.139108 0.281694 8.57337e-21 -0.166693 6.56592e-20 0.0275855)
(0.628508 0.32299 -8.86633e-20 -0.719937 7.99849e-19 0.0914294)
(1.20325 0.049391 8.54124e-19 -1.31508 9.28951e-19 0.111829)
(1.61101 -0.387758 1.90374e-19 -1.6853 -1.10775e-18 0.0742936)
(1.99649 -0.926674 -6.30142e-20 -2.01339 -1.13201e-19 0.0168967)
(2.99945 -2.11928 -4.03651e-18 -2.94776 -1.4649e-17 -0.0516892)
(1.93395 -2.23128 1.43103e-19 -1.79691 -7.71408e-17 -0.137039)
(1.17332 -2.35873 4.73837e-17 -0.864059 -1.01331e-16 -0.309265)
(0.861046 -2.45802 1.69689e-17 -0.470804 7.62276e-17 -0.390242)
(0.743686 -2.82041 -1.12829e-17 -0.33051 5.36715e-17 -0.413176)
(0.882616 -3.66684 -1.92238e-17 -0.522869 5.69267e-17 -0.359746)
(1.09772 -4.694 -1.94596e-17 -0.822153 2.56956e-18 -0.275563)
(1.27875 -5.78397 -3.34285e-18 -1.08968 -1.49781e-17 -0.189072)
(1.36533 -6.8374 7.99101e-19 -1.23965 -9.17533e-18 -0.125689)
(1.33051 -7.76515 2.35118e-18 -1.2425 -1.12119e-18 -0.0880086)
(1.17943 -8.50463 1.48479e-20 -1.1133 -2.49844e-18 -0.066128)
(0.935472 -9.02825 2.15864e-18 -0.883554 -2.0009e-18 -0.0519181)
(0.629033 -9.33812 -1.49052e-20 -0.586692 3.28322e-19 -0.0423413)
(0.287335 -9.45207 -9.52561e-19 -0.251257 -3.72149e-19 -0.0360782)
(-0.0635786 -9.39594 -1.85383e-19 0.0963859 -3.95109e-19 -0.0328073)
(-0.404523 -9.16698 4.7557e-19 0.435668 -8.13046e-19 -0.0311452)
(-0.68597 -8.79477 1.73332e-18 0.716822 2.37978e-18 -0.0308511)
(-0.882148 -8.38376 2.53745e-19 0.913319 1.56717e-18 -0.031171)
(-1.02791 -7.98358 1.21466e-19 1.0558 9.86635e-18 -0.027895)
(-1.14114 -7.58858 -3.57749e-18 1.16547 -3.09877e-18 -0.0243299)
(-1.22293 -7.17735 2.29907e-18 1.24515 -3.10098e-18 -0.0222124)
(-1.27726 -6.75081 -4.57493e-19 1.29772 -4.99825e-18 -0.0204655)
(-1.30623 -6.3123 5.03879e-19 1.32528 1.01644e-19 -0.0190439)
(-1.31154 -5.86188 1.7855e-19 1.32938 -1.7809e-18 -0.0178363)
(-1.29393 -5.39861 2.89548e-18 1.31081 1.75384e-18 -0.0168793)
(-1.25407 -4.92145 3.16989e-19 1.2701 4.79534e-18 -0.0160296)
(-1.19259 -4.43029 7.87153e-20 1.20785 -2.32923e-18 -0.0152651)
(-1.11016 -3.92656 4.03404e-18 1.12468 6.5918e-18 -0.0145151)
(-1.00797 -3.41204 -6.2252e-19 1.02171 -6.33461e-20 -0.0137375)
(-0.887735 -2.88994 2.98969e-18 0.900483 2.53746e-18 -0.0127481)
(-0.7524 -2.36969 -1.09037e-19 0.763978 1.22404e-18 -0.0115775)
(-0.600602 -1.84024 -2.30024e-19 0.609564 -1.22494e-20 -0.00896265)
(-0.400974 -1.20854 5.02081e-23 0.407533 1.51423e-24 -0.00655919)
(-0.259622 -0.76849 -7.9961e-22 0.262838 4.72251e-22 -0.00321584)
(-0.154709 -0.554443 -7.26248e-20 0.168007 -1.18914e-21 -0.0132981)
(-0.261424 -0.159573 1.04494e-19 0.274891 -2.81868e-19 -0.0134671)
(0.0266724 -0.0359768 1.63107e-21 -0.0184835 2.69154e-22 -0.00818895)
(0.012812 -0.0457596 1.05123e-19 0.00497444 -1.19054e-19 -0.0177864)
(0.0444057 -0.0692694 -4.06579e-19 -0.0103539 -7.12747e-19 -0.0340518)
(0.256796 -0.146184 -8.02383e-19 -0.207919 -1.68081e-19 -0.0488772)
(0.709762 -0.340458 1.19628e-19 -0.692803 -3.95318e-19 -0.0169593)
(1.82801 -1.10374 -3.54958e-18 -1.87245 -1.98955e-18 0.0444454)
(3.13476 -2.44552 -1.55672e-17 -3.30388 3.46136e-17 0.169121)
(4.34315 -4.1003 -4.45634e-17 -4.79134 1.47873e-16 0.448193)
(5.66166 -6.73281 1.94127e-17 -6.38048 -9.66477e-17 0.718823)
(6.44927 -9.81409 2.90899e-17 -7.39753 -1.1876e-16 0.948263)
(5.79676 -11.2875 3.74456e-17 -6.68011 -1.74384e-16 0.883349)
(4.57447 -11.1345 2.95776e-17 -5.22414 -2.7088e-18 0.649667)
(3.37997 -10.1649 -4.27507e-18 -3.81221 4.64163e-17 0.432231)
(2.41918 -8.9944 -2.8802e-18 -2.70095 3.50913e-17 0.281779)
(1.70563 -7.89903 -7.60248e-18 -1.89024 1.29089e-18 0.184607)
(1.18305 -6.9498 -2.418e-18 -1.30585 4.36822e-18 0.122805)
(0.793295 -6.13823 -2.00738e-18 -0.878232 3.58677e-19 0.0849371)
(0.498192 -5.44555 8.56985e-19 -0.561563 4.13732e-18 0.0633715)
(0.273747 -4.86198 -9.44027e-19 -0.327222 1.51699e-18 0.0534752)
(0.104936 -4.36986 3.55294e-19 -0.15587 5.5622e-19 0.0509346)
(-0.0230956 -3.95232 -2.1875e-18 -0.0313169 1.96055e-18 0.0544125)
(-0.116032 -3.62518 -2.54993e-18 0.0570993 -7.12402e-18 0.058933)
(-0.180918 -3.34963 4.2748e-18 0.120812 -3.24466e-19 0.0601055)
(-0.233658 -3.095 5.25835e-18 0.176432 -1.4595e-17 0.0572257)
(-0.274104 -2.87256 3.97733e-18 0.221996 7.03722e-18 0.052108)
(-0.302574 -2.68424 -5.17237e-18 0.255286 2.71621e-18 0.0472871)
(-0.323734 -2.52701 1.49359e-18 0.280064 8.73965e-18 0.0436703)
(-0.339466 -2.39485 -5.11669e-19 0.298587 -9.22807e-20 0.0408788)
(-0.35081 -2.28251 -4.85317e-18 0.312052 2.02225e-18 0.0387573)
(-0.35829 -2.18574 -4.41055e-18 0.321125 -8.34773e-18 0.0371655)
(-0.362488 -2.10164 -5.62856e-18 0.326473 -7.9334e-18 0.0360143)
(-0.363831 -2.02802 -8.11617e-18 0.328657 -1.63519e-20 0.0351739)
(-0.362682 -1.96315 -7.67533e-18 0.328159 -1.71702e-17 0.0345233)
(-0.359187 -1.90484 9.63317e-19 0.325257 2.25688e-18 0.0339301)
(-0.353907 -1.851 -1.55991e-19 0.320596 -7.90242e-18 0.0333108)
(-0.345859 -1.79739 -6.46879e-18 0.313954 -4.32589e-18 0.0319046)
(-0.338183 -1.7369 3.3689e-19 0.30855 3.11629e-20 0.0296332)
(-0.314925 -1.63781 7.79886e-20 0.291774 4.29976e-19 0.0231508)
(-0.315653 -1.5319 -1.36319e-22 0.286753 -7.0811e-22 0.0288999)
(-0.233853 -1.39444 2.52362e-19 0.244707 -3.0189e-19 -0.0108538)
(-0.586393 -2.11799 -2.38335e-18 0.325015 3.34218e-18 0.261379)
(0.0104616 -0.0221704 -1.24718e-20 -0.0109385 -3.63331e-20 0.000476849)
(-0.011943 -0.0146662 -1.17221e-19 0.00825225 -1.22871e-19 0.00369076)
(-0.0166387 -0.00315725 5.86482e-20 0.0122782 1.95864e-19 0.00436045)
(-0.012015 -0.000173452 1.00439e-19 0.00889677 9.44678e-20 0.0031182)
(0.0047691 -0.00819627 -2.60276e-19 -0.00583949 -1.51252e-19 0.0010704)
(0.0826577 -0.0642105 -2.21861e-19 -0.0806444 5.33696e-19 -0.00201329)
(0.325326 -0.2788 6.99913e-19 -0.323709 1.51422e-18 -0.00161679)
(0.71542 -0.733513 1.15555e-18 -0.724608 -2.75736e-18 0.00918778)
(1.19003 -1.49144 -2.19463e-18 -1.21341 4.0062e-18 0.0233784)
(1.6486 -2.50956 5.23052e-19 -1.67877 -1.32236e-18 0.0301721)
(2.01727 -3.69631 -3.41282e-18 -2.03897 7.4969e-18 0.0217088)
(2.25578 -4.96257 -1.0998e-17 -2.2607 -1.96953e-17 0.0049141)
(2.35191 -6.19766 4.46559e-18 -2.34766 -9.38597e-18 -0.00424778)
(2.29677 -7.25807 1.35849e-18 -2.29792 -5.1168e-18 0.00115113)
(2.09253 -8.0063 4.29259e-18 -2.10802 6.19464e-18 0.0154921)
(1.76247 -8.35154 4.44141e-18 -1.79183 1.16285e-18 0.0293629)
(1.3567 -8.28289 1.40528e-18 -1.39378 8.6253e-19 0.037079)
(0.939257 -7.88035 6.21245e-18 -0.976099 4.11856e-19 0.036842)
(0.561783 -7.27223 1.32833e-18 -0.591009 -5.91083e-19 0.0292261)
(0.255179 -6.5931 -1.06542e-18 -0.270736 -1.53253e-18 0.0155566)
(0.0189757 -5.9364 4.34651e-18 -0.0204965 2.64815e-18 0.00152084)
(-0.150098 -5.36527 1.87012e-18 0.160904 2.92598e-18 -0.0108059)
(-0.264435 -4.90925 -3.83437e-18 0.283916 -4.86807e-18 -0.0194808)
(-0.347937 -4.5232 -7.85021e-18 0.369267 -1.19928e-17 -0.0213301)
(-0.407172 -4.19956 -8.03696e-18 0.426804 -8.29108e-18 -0.019632)
(-0.446828 -3.92449 9.06427e-18 0.464309 9.196e-19 -0.017481)
(-0.473828 -3.68608 -6.97675e-19 0.488728 2.19705e-19 -0.0149)
(-0.490639 -3.47651 3.1786e-19 0.503237 -2.54708e-18 -0.0125988)
(-0.498965 -3.29002 6.43771e-18 0.509713 7.52421e-18 -0.0107483)
(-0.500163 -3.12288 -5.63543e-18 0.509589 8.96088e-18 -0.00942638)
(-0.495448 -2.97239 1.32073e-17 0.503957 2.14339e-18 -0.00850992)
(-0.485885 -2.83718 -1.24848e-18 0.493766 1.38425e-17 -0.00788089)
(-0.472372 -2.71654 1.5368e-18 0.479841 6.36219e-18 -0.0074695)
(-0.455525 -2.60921 1.0991e-17 0.462662 -8.8133e-19 -0.00713673)
(-0.436727 -2.51488 -9.43212e-18 0.443427 6.14025e-19 -0.00670009)
(-0.415663 -2.43247 -9.19139e-19 0.422332 3.32123e-18 -0.00666935)
(-0.398923 -2.36214 2.73729e-19 0.40457 1.09175e-20 -0.00564648)
(-0.371174 -2.29344 7.8358e-18 0.379159 -8.50187e-19 -0.00798499)
(-0.390282 -2.23717 -2.68244e-19 0.386142 -5.41524e-21 0.00414016)
(-0.272569 -2.07735 5.86311e-18 0.31994 -8.16861e-19 -0.0473707)
(-0.425369 -2.29989 2.46687e-18 0.383349 -3.87163e-18 0.0420198)
(0.00793013 -0.0155209 1.00873e-20 -0.00812812 2.47939e-20 0.000197983)
(-0.00361125 -0.0155186 1.64301e-20 0.00381684 7.25324e-20 -0.000205583)
(-0.0102564 -0.00910701 -5.90043e-20 0.0104426 -8.79354e-20 -0.000186223)
(-0.0116317 -0.00318854 -6.29904e-20 0.0119775 -4.12275e-20 -0.000345848)
(-0.010294 -9.34898e-05 8.82677e-20 0.0107879 7.10079e-20 -0.000493973)
(-0.00669802 0.000663148 7.80838e-20 0.00719774 5.45555e-20 -0.000499711)
(-0.00324437 -0.000330713 -1.37294e-20 0.0038801 -4.83085e-20 -0.000635721)
(0.00151801 -0.00497254 6.73088e-21 -0.000221526 -1.04957e-20 -0.00129648)
(0.0163972 -0.0236685 -5.08691e-20 -0.0137136 6.7939e-20 -0.0026836)
(0.0437748 -0.0646654 -5.60969e-19 -0.0403825 4.72424e-20 -0.00339234)
(0.0743764 -0.124189 8.25215e-20 -0.072001 2.79615e-19 -0.00237539)
(0.104196 -0.20269 5.91575e-19 -0.103499 1.1925e-18 -0.000697175)
(0.141778 -0.324867 -1.63449e-20 -0.14241 -2.07284e-20 0.000631325)
(0.198945 -0.536474 1.8205e-18 -0.200515 -2.00773e-19 0.00156994)
(0.281713 -0.890085 -2.63899e-19 -0.283755 -7.67527e-19 0.00204199)
(0.383013 -1.42026 -1.53575e-18 -0.384698 -2.19946e-18 0.00168513)
(0.480213 -2.11841 -3.44991e-18 -0.480931 -9.54641e-20 0.000718549)
(0.541103 -2.91893 8.13764e-19 -0.541311 -1.68628e-18 0.000208494)
(0.536247 -3.71333 -1.81161e-18 -0.53788 -1.39617e-18 0.00163284)
(0.453413 -4.38298 -8.12661e-19 -0.458805 6.51111e-19 0.00539124)
(0.301748 -4.84501 -1.37547e-18 -0.31292 -2.11426e-18 0.0111718)
(0.11945 -5.06476 -3.59973e-18 -0.134531 -2.11157e-19 0.0150808)
(-0.0487859 -5.07997 -1.15687e-19 0.0339308 1.90447e-18 0.014855)
(-0.190125 -4.95395 -8.27007e-18 0.17587 1.89681e-18 0.0142552)
(-0.298998 -4.75747 -2.76014e-18 0.286525 9.7569e-18 0.0124728)
(-0.377653 -4.54151 -1.77341e-17 0.368909 -1.70048e-18 0.0087442)
(-0.433225 -4.32682 2.02812e-18 0.428514 1.84982e-18 0.00471109)
(-0.471288 -4.12433 -8.17452e-18 0.470162 2.59352e-18 0.00112587)
(-0.496186 -3.93904 9.62782e-18 0.497838 -5.57736e-18 -0.00165163)
(-0.5108 -3.7726 1.44659e-17 0.514368 -8.48474e-19 -0.00356849)
(-0.517166 -3.62456 -6.9823e-18 0.521809 -5.60227e-18 -0.0046427)
(-0.516543 -3.49351 2.91114e-17 0.521528 -4.46442e-18 -0.00498543)
(-0.509676 -3.37771 -1.24125e-18 0.514543 -1.35983e-19 -0.00486609)
(-0.497123 -3.2746 1.46965e-18 0.501565 -4.03568e-18 -0.00444194)
(-0.480106 -3.18268 6.76134e-19 0.483847 3.10989e-18 -0.00374077)
(-0.458256 -3.09994 -2.57048e-18 0.461711 1.37266e-18 -0.00345488)
(-0.438963 -3.02751 1.97122e-19 0.440866 -4.16567e-20 -0.00190287)
(-0.405529 -2.95596 2.14414e-18 0.410669 -1.39309e-18 -0.00513928)
(-0.422607 -2.9016 -7.77685e-20 0.414904 7.33743e-21 0.00770344)
(-0.283327 -2.75481 2.33241e-18 0.330317 4.94774e-19 -0.0469896)
(-0.346651 -2.86324 9.92745e-20 0.260023 6.40512e-19 0.0866288)
(0.00598691 -0.0105287 9.43825e-22 -0.00599163 9.50584e-23 4.71728e-06)
(-0.00129409 -0.0116137 2.11563e-20 0.00140766 1.79283e-20 -0.000113573)
(-0.00651851 -0.00851786 9.45875e-20 0.00664408 1.16295e-19 -0.000125571)
(-0.00834595 -0.00412867 1.10215e-19 0.00845078 7.89627e-20 -0.000104823)
(-0.00820395 -0.00055682 -1.43189e-19 0.00822992 -1.10007e-19 -2.59632e-05)
(-0.00720024 0.00173464 7.79172e-20 0.00715685 1.40682e-20 4.33939e-05)
(-0.00552863 0.00281432 -6.98377e-21 0.00548578 5.36447e-21 4.28521e-05)
(-0.00377389 0.00308604 6.55968e-21 0.00375863 -5.78408e-21 1.52676e-05)
(-0.00234063 0.00298935 4.33373e-20 0.0023568 2.18947e-20 -1.61676e-05)
(-0.00124323 0.00268348 7.13181e-20 0.00128808 2.71404e-20 -4.48555e-05)
(-0.000477345 0.00224324 2.94785e-20 0.000542385 -2.28556e-21 -6.50398e-05)
(-3.33876e-05 0.00174826 -4.06944e-22 0.000113354 -1.46651e-20 -7.99667e-05)
(0.00017512 0.00125671 -3.46272e-21 -8.94962e-05 8.42557e-22 -8.56234e-05)
(0.000272523 0.000772039 -3.16192e-20 -0.00019262 -2.33774e-20 -7.99027e-05)
(0.000354743 0.000246882 6.15246e-21 -0.000286203 1.37438e-20 -6.85402e-05)
(0.000635806 -0.00054444 -3.5032e-20 -0.000557254 5.64681e-21 -7.85523e-05)
(0.00414344 -0.008563 9.28474e-20 -0.00382105 9.33952e-20 -0.000322386)
(0.014036 -0.0439133 -1.63323e-20 -0.0133655 -6.85104e-20 -0.000670573)
(0.0313058 -0.132566 -2.79982e-21 -0.0304669 1.04845e-19 -0.000838938)
(0.0567029 -0.316043 2.35614e-20 -0.0558776 1.0409e-19 -0.000825304)
(0.084602 -0.637962 6.03272e-19 -0.084043 2.74705e-19 -0.000559017)
(0.0994135 -1.08475 1.67575e-18 -0.0991663 5.79495e-19 -0.000247191)
(0.0899914 -1.581 -4.16325e-19 -0.0890077 -1.31032e-19 -0.000983769)
(0.0539415 -2.06164 -4.03439e-18 -0.0526416 1.62639e-18 -0.00129992)
(-0.00308854 -2.4854 1.16033e-17 0.00368609 -1.28072e-18 -0.000597551)
(-0.0723945 -2.83514 7.38597e-18 0.0719659 5.01843e-18 0.0004286)
(-0.146865 -3.10473 5.39708e-18 0.144854 -1.42318e-18 0.00201093)
(-0.219939 -3.29867 6.91867e-18 0.216052 1.87898e-18 0.00388626)
(-0.286533 -3.428 -8.13254e-18 0.280976 -2.41524e-18 0.00555687)
(-0.343164 -3.50608 -1.46333e-17 0.336535 -2.20046e-18 0.00662915)
(-0.38813 -3.54608 3.70778e-19 0.381159 1.82515e-18 0.00697114)
(-0.42095 -3.55951 -1.46328e-17 0.414311 -5.76859e-18 0.00663936)
(-0.441841 -3.55565 1.16345e-18 0.436175 -4.45271e-20 0.00566589)
(-0.45183 -3.54115 2.46291e-18 0.447542 -1.4824e-18 0.00428763)
(-0.452553 -3.52096 3.27899e-19 0.449721 9.78074e-20 0.00283155)
(-0.444378 -3.49722 1.19134e-17 0.443385 -1.12803e-18 0.000993014)
(-0.434369 -3.47337 -5.71177e-19 0.433534 -6.73258e-19 0.000835103)
(-0.407626 -3.44251 -1.05303e-17 0.411812 1.12634e-18 -0.00418564)
(-0.424164 -3.42089 1.35963e-19 0.415141 1.01575e-20 0.00902335)
(-0.283726 -3.33819 2.51814e-18 0.331351 2.75427e-20 -0.0476258)
(-0.398069 -3.38296 1.02701e-17 0.294199 -7.82536e-19 0.10387)
(0.00412899 -0.00712979 5.50584e-23 -0.00418525 -4.92796e-22 5.62578e-05)
(-4.95885e-06 -0.00830387 -3.21825e-22 3.74271e-05 -3.82139e-21 -3.24683e-05)
(-0.00379542 -0.00709013 -2.4157e-20 0.00375109 -5.38873e-20 4.43299e-05)
(-0.00595237 -0.00443194 -3.90648e-20 0.00584892 -5.20237e-20 0.000103456)
(-0.00644313 -0.00172093 9.2213e-20 0.00636042 9.95825e-20 8.2708e-05)
(-0.00607734 0.00042574 -9.1437e-20 0.00603044 -7.005e-20 4.68992e-05)
(-0.00532119 0.0020352 4.74109e-20 0.00527579 2.13173e-20 4.54007e-05)
(-0.0042232 0.0030908 -7.0527e-20 0.00416443 -2.33366e-20 5.87651e-05)
(-0.00296065 0.00351582 -5.91627e-22 0.00291048 -5.10285e-21 5.01729e-05)
(-0.00183843 0.00345189 -4.7998e-20 0.00181253 -4.7291e-20 2.58986e-05)
(-0.00101072 0.00314505 -2.66469e-20 0.00100222 -9.98029e-21 8.49954e-06)
(-0.000479282 0.00275858 4.64964e-21 0.00047692 -1.39815e-21 2.36263e-06)
(-0.000189147 0.00239483 9.84416e-21 0.000185927 5.89733e-21 3.21918e-06)
(-5.43373e-05 0.00210065 -2.20916e-20 4.75598e-05 6.5063e-21 6.77755e-06)
(8.56424e-06 0.00188635 4.64113e-20 -1.76253e-05 -1.3288e-22 9.06103e-06)
(5.07195e-05 0.00170165 6.62921e-21 -5.80854e-05 6.33406e-21 7.36592e-06)
(9.43615e-05 0.00159382 7.90543e-21 -9.68245e-05 -6.28933e-21 2.46303e-06)
(0.000141768 0.00144955 -9.07491e-21 -0.000137917 1.793e-22 -3.85131e-06)
(0.00170475 0.0110201 6.70388e-21 -0.0016243 -2.48702e-20 -8.04504e-05)
(0.000242302 0.000946666 2.1204e-22 -0.00022998 9.52937e-22 -1.23221e-05)
(0.000694367 0.0012792 3.60852e-21 -0.000663245 -1.69051e-21 -3.1122e-05)
(0.00475786 0.000147692 -5.20355e-20 -0.00459947 -4.45375e-20 -0.000158397)
(0.0106143 -0.0186245 -5.33774e-22 -0.0103403 -4.01908e-20 -0.000274003)
(0.017116 -0.066266 -2.51445e-19 -0.0168037 2.10246e-19 -0.000312271)
(0.0227054 -0.154076 -1.81155e-18 -0.0224476 -6.99673e-19 -0.00025783)
(0.0251639 -0.289175 5.02261e-19 -0.024859 -4.07171e-19 -0.000304936)
(0.0222582 -0.473245 -1.68968e-18 -0.0216895 -4.51141e-19 -0.000568735)
(0.0122974 -0.702212 -3.23755e-20 -0.0112428 -1.00173e-18 -0.00105457)
(-0.0055808 -0.968133 -6.8225e-19 0.00727073 8.00399e-19 -0.00168992)
(-0.0312654 -1.26033 4.06409e-18 0.0336059 1.78015e-18 -0.00234049)
(-0.0638304 -1.56729 -7.21453e-19 0.0666497 3.49689e-19 -0.00281928)
(-0.101611 -1.87782 9.60745e-19 0.104508 2.15718e-18 -0.00289718)
(-0.142211 -2.18178 -4.06471e-19 0.144715 -4.91303e-19 -0.00250367)
(-0.183317 -2.47161 -1.13138e-17 0.184901 2.48253e-19 -0.00158385)
(-0.222528 -2.74064 1.42587e-18 0.222683 -7.07455e-19 -0.00015491)
(-0.256427 -2.98197 -3.12616e-19 0.255294 -4.77492e-19 0.00113312)
(-0.286481 -3.19189 -1.42467e-17 0.282932 1.66446e-18 0.00354885)
(-0.298616 -3.36416 5.25294e-19 0.29778 6.09133e-19 0.000836118)
(-0.340844 -3.50763 2.70173e-19 0.326854 7.81416e-20 0.0139895)
(-0.23064 -3.58665 -9.96189e-18 0.269154 9.81205e-19 -0.0385139)
(-0.455972 -3.71248 -9.01656e-18 0.354993 1.65043e-18 0.100979)
(0.00291302 -0.00492424 -5.11442e-21 -0.00295089 -3.27034e-21 3.78703e-05)
(0.000506114 -0.00585814 2.80954e-20 -0.000481674 2.11956e-20 -2.44401e-05)
(-0.00198834 -0.00565499 -3.0029e-20 0.00200541 -1.72561e-20 -1.70717e-05)
(-0.00396141 -0.00436253 -7.11427e-21 0.00398198 1.00611e-20 -2.05677e-05)
(-0.00495318 -0.00253001 8.82579e-21 0.00499404 -6.52524e-21 -4.08622e-05)
(-0.00506232 -0.00075089 2.72458e-20 0.00511343 2.64058e-20 -5.11179e-05)
(-0.00463791 0.000726151 -2.52222e-20 0.00467749 -3.2368e-20 -3.95802e-05)
(-0.00390274 0.00186387 7.40687e-20 0.00391983 4.48775e-20 -1.70836e-05)
(-0.00296692 0.002618 2.74393e-20 0.00296568 5.01127e-21 1.23607e-06)
(-0.00197245 0.00294612 -3.96566e-20 0.00196213 7.67201e-21 1.03209e-05)
(-0.00108913 0.00289843 3.3424e-20 0.00107545 6.81714e-21 1.36799e-05)
(-0.000436039 0.00260733 -3.0718e-20 0.00042361 -8.14744e-21 1.24292e-05)
(-4.11268e-05 0.00223214 2.98293e-20 3.3779e-05 1.75402e-20 7.34778e-06)
(0.000152711 0.00189509 -6.91314e-21 -0.000154767 -5.82776e-21 2.05542e-06)
(0.000235454 0.00164747 -4.75787e-20 -0.000234819 -2.69886e-20 -6.34811e-07)
(0.000274166 0.00147031 1.6318e-21 -0.000272594 9.50757e-21 -1.57195e-06)
(0.000298051 0.00133249 -1.98669e-20 -0.000295787 -2.17975e-21 -2.26396e-06)
(0.000305172 0.00118314 8.87185e-21 -0.000302308 2.42027e-21 -2.86425e-06)
(0.000298359 0.00103024 -1.50085e-20 -0.000295666 -2.99226e-21 -2.69356e-06)
(0.000284187 0.000889653 4.06038e-21 -0.000281866 -1.91823e-21 -2.3214e-06)
(0.000298582 0.000846959 9.50004e-22 -0.000296404 3.12436e-21 -2.17874e-06)
(0.000485983 0.00123107 -4.63366e-21 -0.000482777 -7.39472e-22 -3.20672e-06)
(0.000330333 0.00074329 -5.01318e-21 -0.000327297 -8.90097e-22 -3.03612e-06)
(0.00104177 0.002042 2.69901e-22 -0.00103071 1.97468e-21 -1.10665e-05)
(0.00125203 0.00200926 -1.77066e-20 -0.00124108 1.12424e-20 -1.09572e-05)
(0.00139928 0.00160059 2.3391e-20 -0.00139038 1.16531e-22 -8.8942e-06)
(0.00385644 0.00209888 -3.94903e-20 -0.00384222 1.05013e-20 -1.42158e-05)
(0.00714652 -0.00174079 -1.8585e-19 -0.00714477 9.15918e-21 -1.75458e-06)
(0.011026 -0.0144129 3.84026e-20 -0.0110645 6.38356e-20 3.84935e-05)
(0.0151108 -0.0423281 6.74776e-19 -0.0152077 -1.1599e-19 9.69374e-05)
(0.0187765 -0.0942256 7.13861e-19 -0.0189034 -2.12322e-19 0.000126994)
(0.0209575 -0.179812 1.61448e-18 -0.0210061 -2.09052e-19 4.85803e-05)
(0.0205834 -0.309259 -1.96849e-18 -0.0203321 1.92634e-19 -0.000251296)
(0.0165825 -0.4927 -4.58822e-18 -0.0157207 9.74908e-19 -0.000861798)
(0.00797878 -0.737717 -5.5559e-18 -0.00622415 4.58572e-19 -0.00175463)
(-0.00535259 -1.04606 6.80604e-18 0.00834477 -4.95694e-19 -0.00299218)
(-0.0248094 -1.41153 7.62666e-18 0.0283317 -3.74695e-19 -0.00352236)
(-0.0424815 -1.82234 9.16111e-18 0.0487556 -7.20256e-19 -0.00627416)
(-0.0894187 -2.26178 1.01738e-17 0.0865228 -8.37922e-19 0.00289595)
(-0.0304492 -2.6699 1.1435e-21 0.0625285 -1.3843e-19 -0.0320793)
(-0.309419 -3.17025 -1.16394e-17 0.229839 4.75649e-19 0.0795798)
(0.00204139 -0.00345404 -2.02967e-21 -0.00207377 -1.67338e-21 3.23781e-05)
(0.000589672 -0.00410932 -1.62998e-20 -0.000580125 -1.27522e-20 -9.54651e-06)
(-0.000971223 -0.00421882 1.83608e-20 0.00097412 1.84957e-20 -2.89756e-06)
(-0.00244624 -0.00366589 2.35553e-20 0.00244 1.82982e-20 6.24086e-06)
(-0.00349103 -0.00257639 4.44849e-20 0.00348509 2.38647e-20 5.94105e-06)
(-0.00395814 -0.00127994 -5.01838e-20 0.00395806 -4.29934e-20 7.87648e-08)
(-0.00392379 -4.54283e-05 -8.00781e-20 0.0039262 -3.44746e-20 -2.41094e-06)
(-0.00352127 0.000992083 -4.50004e-20 0.00351948 -2.90801e-20 1.78696e-06)
(-0.00286436 0.00175759 8.70201e-21 0.00285581 4.57013e-21 8.54905e-06)
(-0.00207702 0.00220054 4.11851e-20 0.00206521 2.94734e-20 1.18095e-05)
(-0.00130026 0.00232445 -8.02071e-20 0.00129016 -3.24833e-20 1.01057e-05)
(-0.000652953 0.00219769 1.26688e-20 0.000646935 7.74989e-21 6.01834e-06)
(-0.000195937 0.00193156 6.87424e-20 0.000193521 5.90061e-21 2.41549e-06)
(8.06691e-05 0.00163789 -5.31838e-20 -8.15687e-05 -1.27344e-20 8.99527e-07)
(0.000232082 0.00138402 -1.33509e-20 -0.000234063 9.66796e-21 1.98049e-06)
(0.000317877 0.00118906 6.38261e-20 -0.000322072 9.29362e-21 4.19554e-06)
(0.000375206 0.00103892 1.3427e-20 -0.000380969 -8.27678e-22 5.76246e-06)
(0.000421003 0.000921805 -1.12008e-20 -0.000427088 1.6991e-21 6.0852e-06)
(0.000453972 0.000816393 -8.97987e-21 -0.000459838 2.00499e-21 5.86562e-06)
(0.000474379 0.000721172 -1.56797e-20 -0.000479865 -1.21335e-21 5.48613e-06)
(0.000470148 0.000621271 2.6101e-20 -0.000475313 1.2348e-21 5.16502e-06)
(0.000448083 0.000531278 -7.99837e-21 -0.0004527 -7.18095e-23 4.61621e-06)
(0.000404088 0.000447042 -4.6594e-21 -0.000406929 8.19203e-22 2.8411e-06)
(0.000370046 0.000397599 5.08689e-23 -0.000371376 1.11291e-22 1.33015e-06)
(0.000333391 0.000356402 -3.92256e-21 -0.000334061 -5.3364e-22 6.69404e-07)
(0.000341194 0.000364244 4.18723e-21 -0.00034143 2.55409e-23 2.3575e-07)
(0.000404924 0.000427415 -5.22035e-21 -0.000404578 4.41677e-22 -3.46305e-07)
(0.000858728 0.000877915 1.92817e-21 -0.000857153 1.60788e-21 -1.57508e-06)
(0.000315907 0.000301812 7.69053e-21 -0.000315352 -8.94919e-22 -5.55584e-07)
(0.00141018 0.00118218 2.79275e-21 -0.0014094 -6.33767e-21 -7.76592e-07)
(0.00099659 0.000646891 -6.36263e-20 -0.000998539 3.97021e-21 1.94826e-06)
(0.000858897 0.000304191 -1.45477e-20 -0.00086381 -1.7867e-21 4.91318e-06)
(0.00340611 -0.000335212 7.89658e-20 -0.00344169 2.89875e-21 3.55793e-05)
(0.00682908 -0.00543972 4.06978e-19 -0.00693366 -1.31012e-20 0.000104588)
(0.0110415 -0.0208221 6.977e-20 -0.0112599 5.1011e-20 0.000218465)
(0.0158955 -0.0569132 3.03811e-20 -0.0162026 -4.3399e-20 0.000307149)
(0.0204265 -0.12928 -7.59691e-21 -0.0208419 -5.02899e-20 0.000415377)
(0.0262504 -0.258944 7.92486e-20 -0.0257312 -9.93037e-20 -0.000519185)
(0.0230678 -0.472175 -3.4208e-18 -0.0246434 2.35276e-19 0.00157558)
(0.0566519 -0.756194 6.50613e-20 -0.0439894 -4.9218e-21 -0.0126625)
(-0.0455804 -1.26798 5.57837e-18 0.0139479 -5.06024e-19 0.0316325)
(0.00143246 -0.00245872 1.45991e-21 -0.00145627 9.93583e-22 2.38183e-05)
(0.000519924 -0.00289936 -1.079e-22 -0.000514053 8.73059e-22 -5.87043e-06)
(-0.000452532 -0.00306585 3.02584e-20 0.000454145 1.7164e-20 -1.61244e-06)
(-0.00146022 -0.00288232 1.65292e-21 0.00145873 -2.66999e-21 1.485e-06)
(-0.00233068 -0.00232157 3.74552e-21 0.00233197 -4.0232e-21 -1.29071e-06)
(-0.00290129 -0.00149805 1.13656e-21 0.00290927 9.68354e-21 -7.97574e-06)
(-0.00312059 -0.000578208 3.4081e-20 0.00313346 2.71384e-20 -1.28786e-05)
(-0.00301788 0.000300241 -3.00515e-21 0.00303025 -2.5664e-21 -1.23749e-05)
(-0.00265323 0.0010356 1.036e-21 0.00266111 1.48403e-20 -7.87735e-06)
(-0.00211128 0.00155225 8.26313e-20 0.00211466 2.26373e-20 -3.38222e-06)
(-0.00149993 0.00181852 6.87364e-21 0.00150135 8.71699e-21 -1.42359e-06)
(-0.000925523 0.00185682 -6.03149e-20 0.000926628 -1.52022e-20 -1.10498e-06)
(-0.00046397 0.00173395 -9.3552e-21 0.000464961 -1.71567e-20 -9.90796e-07)
(-0.000140221 0.00153502 1.53691e-20 0.00014124 1.62037e-20 -1.01865e-06)
(6.57551e-05 0.00132765 -1.84538e-20 -6.49513e-05 -8.48e-21 -8.03769e-07)
(0.00019366 0.00114559 -1.58911e-20 -0.000193264 -1.10015e-20 -3.96082e-07)
(0.000278614 0.000994458 -2.52213e-20 -0.000278375 -3.50339e-21 -2.38938e-07)
(0.000341545 0.00086759 3.62846e-20 -0.000340934 6.67107e-21 -6.11282e-07)
(0.00039198 0.000756649 -9.24327e-21 -0.000390818 -7.41522e-22 -1.16256e-06)
(0.000434316 0.000656072 3.25185e-22 -0.000432789 3.43309e-21 -1.52691e-06)
(0.000471928 0.000564494 -1.18751e-21 -0.000470509 -7.47184e-21 -1.41934e-06)
(0.000494558 0.000472357 2.83078e-21 -0.00049366 3.97716e-21 -8.98029e-07)
(0.000497471 0.000384704 -2.77606e-21 -0.000496608 7.42236e-22 -8.63348e-07)
(0.00047595 0.000304377 -6.16272e-22 -0.000475061 -6.29175e-23 -8.88456e-07)
(0.000455847 0.000247022 -1.41824e-20 -0.00045541 9.3795e-22 -4.36858e-07)
(0.000424794 0.000199256 1.00068e-20 -0.000424788 -1.75446e-22 -5.82632e-09)
(0.000385134 0.000159559 -6.91966e-22 -0.000385212 -2.1242e-22 7.76773e-08)
(0.000352376 0.00013213 -3.96313e-21 -0.000352362 5.47478e-22 -1.37456e-08)
(0.000321927 0.000112384 -6.77586e-21 -0.000321777 -8.85376e-22 -1.50476e-07)
(0.000303746 0.00010142 -2.47798e-21 -0.000303399 5.07436e-22 -3.47398e-07)
(0.000294406 9.58462e-05 9.22385e-21 -0.000293838 7.21266e-22 -5.68342e-07)
(0.000295061 9.39676e-05 -3.31682e-21 -0.000294318 9.25053e-22 -7.43e-07)
(0.000330437 0.000100369 -6.03362e-23 -0.000329609 -8.43285e-23 -8.27632e-07)
(0.000710253 0.000189448 -1.4553e-20 -0.000709143 -7.44651e-22 -1.11052e-06)
(0.000260369 4.73315e-05 1.16645e-20 -0.000260733 -7.2993e-22 3.64237e-07)
(0.000354425 2.16098e-06 -2.48641e-21 -0.000356207 1.08037e-23 1.78239e-06)
(0.00103797 -0.00035856 6.19381e-21 -0.00105421 6.06457e-22 1.6235e-05)
(0.00290209 -0.00276754 -3.23987e-19 -0.00293553 2.31598e-20 3.34383e-05)
(0.00557875 -0.012893 -1.81834e-20 -0.00591777 3.6535e-21 0.000339026)
(0.0115772 -0.0358638 -1.07389e-21 -0.0109016 2.9145e-22 -0.000675645)
(0.0138217 -0.127422 1.55918e-18 -0.0182584 -6.28109e-20 0.00443663)
(0.00100023 -0.00176757 -4.61923e-21 -0.00101808 -2.56649e-21 1.78522e-05)
(0.000406524 -0.00205838 5.01118e-21 -0.000403166 2.485e-21 -3.35845e-06)
(-0.000208589 -0.00219866 5.39477e-22 0.000208531 -2.87264e-21 5.74921e-08)
(-0.000866918 -0.00215858 -2.32886e-20 0.000864307 -1.43789e-20 2.61038e-06)
(-0.00150191 -0.00189343 -1.52246e-21 0.00149957 3.86042e-21 2.34785e-06)
(-0.0020119 -0.00141974 2.70797e-20 0.00201149 1.2245e-20 4.16872e-07)
(-0.00232261 -0.000808655 -1.54304e-21 0.00232488 -9.94191e-21 -2.2733e-06)
(-0.00240744 -0.000150183 -5.21007e-20 0.00241136 -1.78309e-20 -3.91812e-06)
(-0.00227623 0.000470263 8.83853e-20 0.00227947 3.34496e-20 -3.24302e-06)
(-0.00196774 0.000977675 -2.79349e-20 0.00196869 -2.79271e-20 -9.54292e-07)
(-0.00154769 0.00132075 3.50883e-20 0.00154681 1.04801e-20 8.81755e-07)
(-0.00109494 0.00148574 3.56368e-20 0.00109341 1.38001e-20 1.53682e-06)
(-0.000681514 0.00149716 -5.61425e-20 0.000679857 -1.31821e-20 1.65673e-06)
(-0.000350755 0.00140703 4.13007e-20 0.000349486 3.71318e-21 1.26878e-06)
(-0.00011099 0.0012703 -5.40552e-20 0.000110049 -4.70979e-21 9.41122e-07)
(5.41773e-05 0.00112602 1.6687e-20 -5.51383e-05 8.61677e-21 9.60971e-07)
(0.00016864 0.000992518 1.05876e-20 -0.000169778 1.98972e-21 1.13764e-06)
(0.000251728 0.000873592 -1.08511e-21 -0.000252871 1.71717e-21 1.14293e-06)
(0.000315306 0.000767084 1.10438e-23 -0.000316254 -7.82747e-23 9.47955e-07)
(0.000365814 0.000669279 -1.09916e-21 -0.000366515 -1.7872e-21 7.01065e-07)
(0.00040657 0.000578092 -1.53162e-20 -0.000407143 1.03383e-21 5.72972e-07)
(0.00043735 0.000492744 1.90518e-20 -0.00043807 -5.3987e-22 7.1995e-07)
(0.000457571 0.000414324 -3.47334e-21 -0.000458248 1.39249e-21 6.76816e-07)
(0.000467495 0.000343564 1.40024e-22 -0.000467899 -2.36747e-22 4.04002e-07)
(0.000471354 0.000282381 2.99465e-22 -0.000471726 1.55256e-21 3.72023e-07)
(0.000472486 0.0002292 3.84542e-21 -0.000472954 1.03687e-22 4.68542e-07)
(0.000468888 0.000180231 -8.50544e-21 -0.000469317 4.76599e-23 4.28711e-07)
(0.00045586 0.000133535 8.45743e-21 -0.000456157 1.02309e-22 2.9674e-07)
(0.000436182 9.11171e-05 -7.93926e-21 -0.000436384 9.41127e-22 2.01951e-07)
(0.000410816 5.3958e-05 7.6356e-21 -0.000410967 -2.96954e-22 1.50681e-07)
(0.000392365 2.35656e-05 -3.53771e-21 -0.000392442 -9.40288e-22 7.65134e-08)
(0.000358896 -1.5089e-06 9.98714e-21 -0.000358864 -4.52905e-22 -3.25689e-08)
(0.00031866 -1.92182e-05 5.37528e-21 -0.000318495 -5.25997e-22 -1.6489e-07)
(0.000283005 -3.01934e-05 1.80307e-23 -0.000282646 5.64309e-22 -3.58222e-07)
(0.000258911 -3.71323e-05 4.55492e-21 -0.00025841 -8.28659e-22 -5.01519e-07)
(0.000246188 -4.18482e-05 -5.72873e-21 -0.000245323 3.54333e-22 -8.64717e-07)
(0.000232869 -4.69834e-05 1.05892e-20 -0.000232362 -8.33792e-22 -5.06142e-07)
(0.000243044 -5.61786e-05 1.01346e-20 -0.000241393 -3.56104e-22 -1.65087e-06)
(0.000561526 -0.000210388 -1.93624e-21 -0.000566493 -1.46359e-22 4.96677e-06)
(0.00162378 -0.000790728 5.60902e-21 -0.00159582 -2.44726e-22 -2.79613e-05)
(0.000289813 -0.000350889 -1.58618e-20 -0.000308156 8.55807e-22 1.83433e-05)
(0.000694447 -0.00127964 -2.15864e-23 -0.00070764 -2.38923e-23 1.31927e-05)
(0.000297881 -0.00147011 -2.98385e-20 -0.000295597 -1.45034e-20 -2.28447e-06)
(-0.000100451 -0.00157073 -5.97171e-22 0.000100378 -1.64633e-21 7.23027e-08)
(-0.000526787 -0.00157609 -3.47976e-20 0.000525092 -1.44398e-20 1.6949e-06)
(-0.000960732 -0.00145703 5.40357e-20 0.000959169 2.75132e-20 1.56289e-06)