/*--------------------------------*- C++ -*----------------------------------*\
| =========                 |                                                 |
| \\      /  F ield         | OpenFOAM: The Open Source CFD Toolbox           |
|  \\    /   O peration     | Version:  2312                                  |
|   \\  /    A nd           | Website:  www.openfoam.com                      |
|    \\/     M anipulation  |                                                 |
\*---------------------------------------------------------------------------*/
FoamFile
{
    version     2.0;
    format      ascii;
    arch        "LSB;label=32;scalar=64";
    class       volSymmTensorField;
    location    "150";
    object      turbulenceProperties:R;
}
// * * * * * * * * * * * * * * * * * * * * * * * * * * * * * * * * * * * * * //

dimensions      [0 2 -2 0 0 0 0];

internalField   nonuniform List<symmTensor> 
11040
(
(1.02755 0.207983 6.32998e-21 0.801772 4.84782e-20 0.945214)
(2.42561 0.277739 -7.62415e-20 1.26609 6.8779e-19 1.96378)
(3.97462 0.0452947 7.83286e-19 1.66515 8.51907e-19 2.97372)
(5.22261 -0.367388 1.80374e-19 2.09946 -1.04956e-18 3.76662)
(6.7282 -0.898287 -6.10838e-20 2.84116 -1.09733e-19 4.80925)
(10.9752 -2.09163 -3.98384e-18 5.10555 -1.44578e-17 7.96383)
(8.31729 -2.20522 1.41431e-19 4.63001 -7.62396e-17 6.2705)
(6.89756 -2.33176 4.68419e-17 4.88348 -1.00173e-16 5.43193)
(6.59934 -2.43218 1.67905e-17 5.28149 7.54262e-17 5.3612)
(7.20463 -2.79423 -1.11782e-17 6.14041 5.31732e-17 6.05851)
(9.19263 -3.63753 -1.90701e-17 7.79838 5.64717e-17 7.9602)
(11.7017 -4.66076 -1.93218e-17 9.79546 2.55137e-18 10.3382)
(14.3215 -5.74659 -3.32125e-18 11.9684 -1.48813e-17 12.8631)
(16.7377 -6.79615 7.9428e-19 14.1484 -9.11997e-18 15.2557)
(18.7169 -7.72063 2.3377e-18 16.1587 -1.11476e-18 17.3066)
(20.1396 -8.45761 1.47658e-20 17.8596 -2.48463e-18 18.9009)
(20.9873 -8.97946 2.14698e-18 19.1781 -1.99009e-18 20.0052)
(21.3112 -9.28827 -1.48256e-20 20.102 3.2657e-19 20.6434)
(21.1882 -9.40178 -9.47493e-19 20.6525 -3.70168e-19 20.8665)
(20.707 -9.34578 -1.84393e-19 20.8661 -3.93e-19 20.7376)
(19.8813 -9.11759 4.73008e-19 20.7169 -8.08665e-19 20.2526)
(18.8177 -8.74672 1.72385e-18 20.2128 2.36678e-18 19.4692)
(17.757 -8.3373 2.52339e-19 19.5426 1.55848e-18 18.6033)
(16.77 -7.93869 1.20783e-19 18.842 9.81087e-18 17.7644)
(15.8261 -7.54528 -3.55707e-18 18.1196 -3.08108e-18 16.9366)
(14.8749 -7.13571 2.28574e-18 17.3287 -3.08299e-18 16.0687)
(13.9132 -6.71093 -4.5479e-19 16.4729 -4.96872e-18 15.1625)
(12.945 -6.27425 5.00841e-19 15.5606 1.01031e-19 14.2244)
(11.9679 -5.82573 1.77449e-19 14.5925 -1.76992e-18 13.2536)
(10.9782 -5.36447 2.87717e-18 13.5664 1.74275e-18 12.2471)
(9.97187 -4.88939 3.14924e-19 12.4796 4.7641e-18 11.2019)
(8.94754 -4.40042 7.81846e-20 11.3318 -2.31353e-18 10.1169)
(7.90698 -3.899 4.00572e-18 10.1261 6.54553e-18 8.99493)
(6.85267 -3.38691 -6.17935e-19 8.86741 -6.28796e-20 7.83958)
(5.79005 -2.86738 2.96635e-18 7.56431 2.51765e-18 6.65821)
(4.73741 -2.34981 -1.08122e-19 6.24107 1.21377e-18 5.47202)
(3.67079 -1.82317 -2.2789e-19 4.86973 -1.21357e-20 4.25694)
(2.40345 -1.19427 4.96152e-23 3.20241 1.49635e-24 2.79321)
(1.523 -0.757294 -7.8796e-22 2.03785 4.6537e-22 1.77567)
(1.1125 -0.545579 -7.14637e-20 1.43006 -1.17013e-21 1.25165)
(0.427846 -0.157333 1.03027e-19 0.956634 -2.77912e-19 0.672323)
(0.136325 -0.0122899 5.57182e-22 0.1209 9.19443e-23 0.124416)
(0.162735 -0.0177985 4.08882e-20 0.159686 -4.63069e-20 0.150834)
(0.294478 -0.0496962 -2.91693e-19 0.255192 -5.11348e-19 0.23819)
(0.892438 -0.131291 -7.20639e-19 0.475066 -1.50957e-19 0.617905)
(2.37234 -0.322024 1.13151e-19 1.04571 -3.73913e-19 1.68497)
(6.47617 -1.07743 -3.46497e-18 2.86392 -1.94212e-18 4.73512)
(11.9818 -2.41334 -1.53623e-17 5.62792 3.41581e-17 9.05521)
(17.9202 -4.06722 -4.42039e-17 8.85942 1.4668e-16 14.0567)
(25.7477 -6.69924 1.93159e-17 13.7656 -9.61659e-17 20.8296)
(33.2126 -9.78076 2.89911e-17 19.4129 -1.18357e-16 27.7303)
(34.5107 -11.256 3.73413e-17 22.0686 -1.73898e-16 29.6109)
(31.6128 -11.106 2.9502e-17 21.8393 -2.70188e-18 27.698)
(27.3164 -10.1399 -4.26455e-18 20.142 4.6302e-17 24.376)
(23.1658 -8.97269 -2.87325e-18 18.0581 3.50065e-17 21.0336)
(19.6715 -7.88019 -7.58434e-18 16.0842 1.28782e-18 18.1541)
(16.8381 -6.93333 -2.41227e-18 14.3551 4.35787e-18 15.7803)
(14.528 -6.12364 -2.00261e-18 12.8604 3.57825e-19 13.8213)
(12.628 -5.43244 8.54923e-19 11.5708 4.12736e-18 12.1942)
(11.073 -4.85004 -9.4171e-19 10.4735 1.51326e-18 10.8533)
(9.79691 -4.35889 3.54402e-19 9.53676 5.54823e-19 9.74305)
(8.73923 -3.94216 -2.18188e-18 8.73103 1.95551e-18 8.81654)
(7.92384 -3.61568 -2.54325e-18 8.09652 -7.10536e-18 8.09835)
(7.25362 -3.34072 4.26342e-18 7.55455 -3.23602e-19 7.494)
(6.64385 -3.08663 5.24412e-18 7.05283 -1.45556e-17 6.93395)
(6.11862 -2.86466 3.96639e-18 6.61336 7.01787e-18 6.44394)
(5.6807 -2.67674 -5.15792e-18 6.237 2.70862e-18 6.02958)
(5.31858 -2.51985 1.48936e-18 5.92066 8.71488e-18 5.68494)
(5.01676 -2.38798 -5.10201e-19 5.65299 -9.20159e-20 5.39602)
(4.76244 -2.27589 -4.83909e-18 5.42338 2.01638e-18 5.15088)
(4.54546 -2.17934 -4.39763e-18 5.22289 -8.32328e-18 4.93976)
(4.35879 -2.09543 -5.61193e-18 5.04571 -7.90996e-18 4.75611)
(4.1971 -2.02199 -8.09201e-18 4.88753 -1.63032e-20 4.59492)
(4.05621 -1.95726 -7.65231e-18 4.74498 -1.71187e-17 4.45223)
(3.93116 -1.89908 9.60407e-19 4.61353 2.25007e-18 4.32309)
(3.81699 -1.84536 -1.55516e-19 4.48944 -7.87838e-18 4.20303)
(3.70509 -1.79188 -6.44895e-18 4.36288 -4.31262e-18 4.08169)
(3.57807 -1.73152 3.35846e-19 4.2228 3.10664e-20 3.94475)
(3.37664 -1.63261 7.77412e-20 3.98141 4.28612e-19 3.71364)
(3.14487 -1.52693 -1.35876e-22 3.74532 -7.05811e-22 3.48831)
(2.90073 -1.38979 2.51521e-19 3.3777 -3.00884e-19 3.12299)
(4.29418 -2.11208 -2.37671e-18 5.20305 3.33286e-18 5.13959)
(0.0772422 -0.00863499 -4.85754e-21 0.0689072 -1.41511e-20 0.0733533)
(0.0508728 -0.00581337 -4.64639e-20 0.0588778 -4.87036e-20 0.0570697)
(0.0414331 -0.00118694 2.20484e-20 0.0523042 7.36336e-20 0.0493276)
(0.0293248 -8.64938e-05 5.00849e-20 0.0397527 4.71075e-20 0.0368711)
(0.0322491 -0.00584993 -1.85767e-19 0.0246774 -1.07953e-19 0.0296092)
(0.318991 -0.0571362 -1.97418e-19 0.17368 4.74898e-19 0.243649)
(1.23908 -0.265862 6.67434e-19 0.620168 1.44395e-18 0.927314)
(2.93355 -0.715186 1.12668e-18 1.5295 -2.68846e-18 2.24496)
(5.36821 -1.46886 -2.16141e-18 3.00115 3.94556e-18 4.21922)
(8.25933 -2.48471 5.17873e-19 4.96489 -1.30927e-18 6.65692)
(11.3103 -3.67125 -3.38968e-18 7.28155 7.44608e-18 9.32826)
(14.3019 -4.93828 -1.09442e-17 9.80748 -1.95989e-17 12.062)
(17.0177 -6.17457 4.44895e-18 12.3356 -9.351e-18 14.6703)
(19.1572 -7.23639 1.35443e-18 14.5762 -5.10151e-18 16.8684)
(20.4348 -7.98611 4.28177e-18 16.2448 6.17902e-18 18.363)
(20.6909 -8.33288 4.43149e-18 17.1446 1.16025e-18 18.9617)
(19.9742 -8.26578 1.40238e-18 17.2294 8.60749e-19 18.6573)
(18.5438 -7.86481 6.20021e-18 16.6322 4.11044e-19 17.6432)
(16.7411 -7.25826 1.32578e-18 15.5905 -5.89947e-19 16.2095)
(14.8901 -6.58064 -1.06341e-18 14.3652 -1.52963e-18 14.6509)
(13.1864 -5.92532 4.3384e-18 13.147 2.6432e-18 13.169)
(11.7561 -5.35537 1.86667e-18 12.0665 2.92058e-18 11.8951)
(10.6427 -4.90028 -3.82736e-18 11.1901 -4.85917e-18 10.8872)
(9.71773 -4.51498 -7.83594e-18 10.4336 -1.1971e-17 10.0437)
(8.95507 -4.19196 -8.02241e-18 9.78754 -8.27607e-18 9.34191)
(8.31798 -3.9174 9.0479e-18 9.22747 9.17939e-19 8.74655)
(7.77311 -3.67943 -6.96417e-19 8.73393 2.19308e-19 8.23121)
(7.30042 -3.47025 3.17288e-19 8.29251 -2.54249e-18 7.7776)
(6.88527 -3.2841 6.42612e-18 7.89214 7.51067e-18 7.37261)
(6.51801 -3.11726 -5.6253e-18 7.52594 8.94477e-18 7.00786)
(6.19147 -2.96705 1.31836e-17 7.18908 2.13954e-18 6.67754)
(5.90167 -2.83208 -1.24623e-18 6.87956 1.38176e-17 6.37882)
(5.64626 -2.71164 1.53403e-18 6.59676 6.35073e-18 6.11033)
(5.42204 -2.6045 1.09712e-17 6.33857 -8.79741e-19 5.86962)
(5.22741 -2.51034 -9.41508e-18 6.10597 6.12916e-19 5.65666)
(5.06029 -2.42806 -9.17474e-19 5.89677 3.31521e-18 5.46855)
(4.91676 -2.35785 2.73231e-19 5.71879 1.08977e-20 5.30932)
(4.78443 -2.28925 7.8215e-18 5.53339 -8.48635e-19 5.14695)
(4.64701 -2.23308 -2.67753e-19 5.42202 -5.40533e-21 5.04071)
(4.38502 -2.07351 5.85225e-18 4.97643 -8.15348e-19 4.6098)
(4.75747 -2.29588 2.46256e-18 5.56478 -3.86488e-18 5.22405)
(0.054675 -0.00590688 3.83898e-21 0.0485636 9.43594e-21 0.0517323)
(0.0458578 -0.0059443 6.29342e-21 0.0487031 2.77831e-20 0.0471623)
(0.0368569 -0.00346946 -2.24787e-20 0.0447425 -3.35004e-20 0.0406933)
(0.0314293 -0.00112937 -2.2311e-20 0.0397916 -1.46026e-20 0.0354267)
(0.0267367 -3.09581e-05 2.92288e-20 0.0337177 2.35135e-20 0.0299818)
(0.0168429 0.000173249 2.03995e-20 0.0204732 1.42527e-20 0.0184622)
(0.00945446 -0.000107627 -4.46808e-21 0.011773 -1.57215e-20 0.0103034)
(0.017425 -0.00312236 4.22646e-21 0.0163327 -6.59047e-21 0.0156577)
(0.0864926 -0.0198 -4.25548e-20 0.0613033 5.68347e-20 0.0705305)
(0.216407 -0.0588494 -5.10516e-19 0.139819 4.29935e-20 0.173482)
(0.386051 -0.116704 7.7548e-20 0.248496 2.62763e-19 0.313925)
(0.593621 -0.193895 5.65905e-19 0.394939 1.14076e-18 0.493279)
(0.907053 -0.315104 -1.58537e-20 0.631406 -2.01054e-20 0.770148)
(1.44472 -0.526024 1.78504e-18 1.05304 -1.96862e-19 1.25119)
(2.32909 -0.879161 -2.6066e-19 1.77056 -7.58106e-19 2.05285)
(3.62393 -1.40904 -1.52361e-18 2.86228 -2.18208e-18 3.24561)
(5.27916 -2.10706 -3.43143e-18 4.32316 -9.49527e-20 4.80223)
(7.11063 -2.90763 8.10615e-19 6.03241 -1.67975e-18 6.57183)
(8.84757 -3.70227 -1.80621e-18 7.77664 -1.392e-18 8.31454)
(10.221 -4.37229 -8.1068e-19 9.31104 6.49524e-19 9.77411)
(11.0669 -4.83483 -1.37257e-18 10.4535 -2.10982e-18 10.7769)
(11.3565 -5.05513 -3.59289e-18 11.103 -2.10756e-19 11.2523)
(11.2205 -5.07093 -1.15481e-19 11.3031 1.90108e-18 11.2841)
(10.8079 -4.94552 -8.25601e-18 11.1732 1.89359e-18 11.0119)
(10.2763 -4.74965 -2.7556e-18 10.8609 9.74086e-18 10.5873)
(9.73309 -4.53425 -1.77058e-17 10.4785 -1.69776e-18 10.1189)
(9.21509 -4.32006 2.02496e-18 10.0755 1.84694e-18 9.65235)
(8.74002 -4.11802 -8.16203e-18 9.68003 2.58956e-18 9.21171)
(8.31416 -3.93313 9.61339e-18 9.3067 -5.569e-18 8.80796)
(7.93808 -3.76704 1.44446e-17 8.96173 -8.47223e-19 8.44456)
(7.60868 -3.6193 -6.97216e-18 8.64614 -5.59413e-18 8.12046)
(7.32155 -3.48851 2.90697e-17 8.35813 -4.45802e-18 7.83237)
(7.07212 -3.37293 -1.23949e-18 8.09489 -1.3579e-19 7.57622)
(6.8543 -3.27002 1.46759e-18 7.85159 -4.03003e-18 7.34629)
(6.66391 -3.17826 6.75195e-19 7.62653 3.10557e-18 7.13961)
(6.49699 -3.09568 -2.56695e-18 7.4157 1.37077e-18 6.95117)
(6.35082 -3.02338 1.96853e-19 7.22944 -4.15998e-20 6.78728)
(6.21716 -2.95195 2.14123e-18 7.03225 -1.3912e-18 6.617)
(6.08406 -2.8977 -7.76639e-20 6.92044 7.32756e-21 6.51379)
(5.87044 -2.75111 2.32927e-18 6.48326 4.9411e-19 6.10646)
(6.05027 -2.85948 9.91441e-20 6.65614 6.39671e-19 6.48298)
(0.0380845 -0.00400852 3.59336e-22 0.033524 3.61909e-23 0.035807)
(0.0340739 -0.00442292 8.05707e-21 0.0351028 6.82772e-21 0.0345235)
(0.0293598 -0.00325571 3.61534e-20 0.0343909 4.44506e-20 0.0318034)
(0.0244818 -0.00156828 4.18653e-20 0.0308621 2.99941e-20 0.0276122)
(0.0211328 -0.000204956 -5.27054e-20 0.0271819 -4.04915e-20 0.024143)
(0.0185598 0.000555085 2.49335e-20 0.0231541 4.50183e-21 0.0208778)
(0.0139959 0.000593878 -1.47372e-21 0.0163202 1.13201e-21 0.0151716)
(0.00791355 0.000273384 5.81105e-22 0.00858084 -5.12397e-22 0.00824922)
(0.00307863 5.84965e-05 8.48037e-22 0.00317055 4.28442e-22 0.00312412)
(0.000779559 5.32112e-06 1.41418e-22 0.000784578 5.38171e-23 0.000781935)
(0.000142489 2.45203e-07 3.22223e-24 0.0001426 -2.49829e-25 0.000142534)
(6.12002e-05 6.07132e-08 -1.41323e-26 6.12053e-05 -5.09286e-25 6.11986e-05)
(0.000100488 2.24213e-07 -6.17792e-25 0.000100441 1.50323e-25 0.000100441)
(0.000174125 1.00139e-06 -4.10124e-23 0.000173521 -3.03221e-23 0.000173668)
(0.000302383 3.61087e-06 8.9985e-23 0.000293009 2.01015e-22 0.000296192)
(0.00247696 -0.000167948 -1.08067e-20 0.00210893 1.74192e-21 0.0022566)
(0.0266535 -0.00745769 8.08627e-20 0.0197171 8.13397e-20 0.0227641)
(0.113224 -0.0419931 -1.56181e-20 0.0870205 -6.55147e-20 0.0991603)
(0.327488 -0.129786 -2.7411e-21 0.26701 1.02646e-19 0.296017)
(0.761509 -0.312418 2.32912e-20 0.65022 1.02897e-19 0.704641)
(1.50429 -0.63356 5.9911e-19 1.33681 2.7281e-19 1.41972)
(2.50841 -1.07972 1.66797e-18 2.31075 5.76807e-19 2.40922)
(3.59652 -1.57554 -4.14888e-19 3.41814 -1.3058e-19 3.50586)
(4.62412 -2.05595 -4.02325e-18 4.51783 1.6219e-18 4.56903)
(5.50716 -2.4796 1.15762e-17 5.51392 -1.27773e-18 5.50965)
(6.21723 -2.82934 7.37086e-18 6.3613 5.00817e-18 6.28991)
(6.74768 -3.099 5.38711e-18 7.03886 -1.42055e-18 6.89628)
(7.11431 -3.29305 6.90687e-18 7.54956 1.87578e-18 7.33775)
(7.34557 -3.42252 -8.11954e-18 7.91217 -2.41137e-18 7.63719)
(7.47333 -3.50077 -1.46111e-17 8.152 -2.19712e-18 7.8226)
(7.5274 -3.54095 3.70241e-19 8.29557 1.82251e-18 7.92192)
(7.53286 -3.55455 -1.46124e-17 8.36696 -5.76055e-18 7.95986)
(7.50952 -3.55087 1.16188e-18 8.38636 -4.44673e-20 7.95643)
(7.47088 -3.53655 2.45971e-18 8.36908 -1.48047e-18 7.92641)
(7.4264 -3.51652 3.27486e-19 8.32754 9.76841e-20 7.88121)
(7.38052 -3.49294 1.18988e-17 8.2672 -1.12665e-18 7.82535)
(7.33548 -3.46922 -5.70495e-19 8.20234 -6.72454e-19 7.77016)
(7.28789 -3.43849 -1.05181e-17 8.10637 1.12503e-18 7.69086)
(7.22662 -3.41699 1.35808e-19 8.06497 1.01459e-20 7.65931)
(7.15958 -3.33446 2.51532e-18 7.77397 2.75119e-20 7.39542)
(7.15894 -3.37925 1.02588e-17 7.85045 -7.81678e-19 7.66033)
(0.0259487 -0.00270668 2.09018e-23 0.0227924 -1.8708e-22 0.0244026)
(0.024529 -0.00315287 -1.22192e-22 0.0245451 -1.45093e-21 0.0245186)
(0.0222868 -0.0026926 -9.17405e-21 0.0251527 -2.04647e-20 0.023745)
(0.0195476 -0.00168436 -1.48466e-20 0.0240327 -1.97716e-20 0.0218492)
(0.0171434 -0.000654551 3.5073e-20 0.0220132 3.7876e-20 0.0196255)
(0.0156197 0.000161474 -3.468e-20 0.0202119 -2.65684e-20 0.0179425)
(0.0146773 0.000745337 1.7363e-20 0.0185581 7.80688e-21 0.0166426)
(0.0134437 0.00101553 -2.31727e-20 0.0161996 -7.66758e-21 0.0148506)
(0.0114381 0.00094021 -1.58214e-22 0.0130081 -1.36462e-21 0.0122432)
(0.00901918 0.000692259 -9.62576e-21 0.00975136 -9.48398e-21 0.00939306)
(0.00686934 0.000465875 -3.9472e-21 0.00716751 -1.47838e-21 0.00702031)
(0.00528286 0.000317881 5.35795e-22 0.00539305 -1.61114e-22 0.00533836)
(0.00417096 0.000226108 9.29438e-22 0.00420637 5.56798e-22 0.00418912)
(0.00323014 0.0001512 -1.5901e-21 0.00323748 4.68309e-22 0.00323454)
(0.00233901 8.59515e-05 2.11473e-21 0.00233782 -6.05464e-24 0.00233903)
(0.00070867 8.43229e-06 3.285e-23 0.00070813 3.13875e-23 0.000708455)
(0.000561676 5.63216e-06 2.79359e-23 0.000561 -2.2225e-23 0.000561351)
(6.96886e-06 9.46706e-10 -5.92685e-27 6.96868e-06 1.17101e-28 6.96877e-06)
(0.0279599 0.00977536 5.94667e-21 0.0250069 -2.20611e-20 0.0263763)
(0.000108871 3.35589e-07 7.51674e-26 0.000108704 3.37812e-25 0.000108781)
(0.00486535 0.000752599 2.12302e-21 0.00406662 -9.94587e-22 0.00443852)
(0.0147785 0.000138069 -4.86451e-20 0.00603088 -4.16356e-20 0.0101826)
(0.0567187 -0.01809 -5.18458e-22 0.0363654 -3.90376e-20 0.0461428)
(0.166566 -0.0652034 -2.47413e-19 0.13319 2.06874e-19 0.149417)
(0.365119 -0.152521 -1.79327e-18 0.320422 -6.92614e-19 0.342388)
(0.665587 -0.287173 4.98784e-19 0.615911 -4.04352e-19 0.640295)
(1.06963 -0.470845 -1.68112e-18 1.02591 -4.48853e-19 1.04692)
(1.56687 -0.699467 -3.2249e-20 1.54342 -9.97818e-19 1.55357)
(2.13916 -0.965096 -6.8011e-19 2.15198 7.97888e-19 2.14304)
(2.7632 -1.25705 4.0535e-18 2.8279 1.77551e-18 2.79205)
(3.41447 -1.56381 -7.19849e-19 3.54466 3.48912e-19 3.47535)
(4.0697 -1.87417 9.58879e-19 4.27542 2.15299e-18 4.16822)
(4.70852 -2.17801 -4.05768e-19 4.99495 -4.90454e-19 4.84799)
(5.31605 -2.46775 -1.12961e-17 5.68369 2.47865e-19 5.4975)
(5.8794 -2.73671 1.42383e-18 6.32398 -7.06442e-19 6.10146)
(6.38603 -2.97801 -3.12201e-19 6.89708 -4.76858e-19 6.64325)
(6.8263 -3.18793 -1.4229e-17 7.395 1.6624e-18 7.11597)
(7.19819 -3.36023 5.2468e-19 7.79389 6.08421e-19 7.49729)
(7.48098 -3.50375 2.69874e-19 8.14794 7.80552e-20 7.83542)
(7.75187 -3.58287 -9.95139e-18 8.25114 9.80171e-19 7.9438)
(7.84194 -3.70873 -9.00745e-18 8.65208 1.64876e-18 8.39832)
(0.0180333 -0.00186836 -1.94052e-21 0.0158084 -1.24084e-21 0.0169424)
(0.0175579 -0.00222348 1.06637e-20 0.017183 8.04485e-21 0.0173566)
(0.0169615 -0.00214715 -1.14017e-20 0.0184779 -6.55198e-21 0.01771)
(0.0159253 -0.00165707 -2.70229e-21 0.0189425 3.82162e-21 0.0174222)
(0.0146057 -0.000961234 3.35321e-21 0.018385 -2.47916e-21 0.0164721)
(0.013276 -0.000285768 1.0369e-20 0.0171487 1.00493e-20 0.0151832)
(0.0121762 0.000277808 -9.64943e-21 0.0157401 -1.23832e-20 0.0139354)
(0.0113359 0.000717004 2.84932e-20 0.0143452 1.72638e-20 0.0128307)
(0.0105808 0.00100716 1.05561e-20 0.0128631 1.92787e-21 0.0117227)
(0.00972525 0.00112476 -1.514e-20 0.0112274 2.92899e-21 0.0104822)
(0.00871428 0.00109266 1.26004e-20 0.0095303 2.56996e-21 0.00913002)
(0.00760564 0.000969073 -1.14171e-20 0.00792515 -3.02818e-21 0.00777232)
(0.00652494 0.000818007 1.09315e-20 0.00655239 6.42792e-21 0.0065427)
(0.00560238 0.000683154 -2.49209e-21 0.00549154 -2.10083e-21 0.00554807)
(0.00491432 0.000582243 -1.68151e-20 0.00474812 -9.53821e-21 0.00483088)
(0.00438981 0.000499607 5.54483e-22 0.00420402 3.23065e-21 0.00429611)
(0.00393172 0.000419377 -6.25277e-21 0.00374482 -6.86037e-22 0.0038372)
(0.00329021 0.000302682 2.26968e-21 0.0031348 6.19177e-22 0.00321141)
(0.00240558 0.000165486 -2.4108e-21 0.00231016 -4.80642e-22 0.00235722)
(0.00104264 3.19777e-05 1.45946e-22 0.00102229 -6.89489e-23 0.00103234)
(1.6244e-05 7.90697e-09 8.86896e-27 1.62385e-05 2.91681e-26 1.62412e-05)
(0.0039694 0.00041951 -1.57901e-21 0.00363928 -2.5199e-22 0.0038027)
(3.07273e-07 3.02983e-12 -2.04349e-29 3.0727e-07 -3.62825e-30 3.07272e-07)
(0.00751465 0.00139633 1.8456e-22 0.00609747 1.3503e-21 0.00679471)
(0.00767332 0.00149182 -1.31466e-20 0.00582226 8.34713e-21 0.00673559)
(0.00694592 0.00124515 1.81966e-20 0.00477576 9.06532e-23 0.00585046)
(0.0133661 0.00193896 -3.64816e-20 0.00625398 9.70125e-21 0.00979033)
(0.0228143 -0.00167467 -1.78791e-19 0.00906581 8.81132e-21 0.0159375)
(0.0503495 -0.0140941 3.75531e-20 0.0287476 6.24235e-20 0.039605)
(0.113478 -0.0417342 6.65308e-19 0.0835846 -1.14362e-19 0.0986745)
(0.230168 -0.0933387 7.07142e-19 0.192843 -2.10323e-19 0.211694)
(0.420472 -0.178619 1.60377e-18 0.378786 -2.07665e-19 0.399701)
(0.705892 -0.307752 -1.95889e-18 0.665175 1.91696e-19 0.685158)
(1.10796 -0.490876 -4.57123e-18 1.07578 9.71298e-19 1.09058)
(1.64267 -0.735578 -5.5398e-18 1.62851 4.57243e-19 1.63296)
(2.3139 -1.04362 6.79016e-18 2.32757 -4.94537e-19 2.31626)
(3.1065 -1.40881 7.61196e-18 3.15954 -3.73973e-19 3.12774)
(4.00195 -1.81937 9.14619e-18 4.09304 -7.19083e-19 4.0381)
(4.93363 -2.2586 1.01595e-17 5.10933 -8.36744e-19 5.02582)
(5.8972 -2.66659 1.14208e-21 5.99007 -1.38258e-19 5.89558)
(6.75853 -3.16675 -1.16265e-17 7.2972 4.75125e-19 7.1471)
(0.0126504 -0.00131057 -7.70117e-22 0.011089 -6.34928e-22 0.0118881)
(0.0124845 -0.00155968 -6.18655e-21 0.0120405 -4.84006e-21 0.0122571)
(0.0124206 -0.00160157 6.97024e-21 0.0131591 7.02142e-21 0.0127882)
(0.0120853 -0.00139195 8.94403e-21 0.0139406 6.94786e-21 0.0130165)
(0.0114851 -0.000978477 1.68947e-20 0.0141345 9.06347e-21 0.0128132)
(0.0107864 -0.000486164 -1.90615e-20 0.0137932 -1.63303e-20 0.0122899)
(0.0101068 -1.72637e-05 -3.04313e-20 0.0130899 -1.3101e-20 0.011597)
(0.00947117 0.000377878 -1.71404e-20 0.0121529 -1.10764e-20 0.0108131)
(0.00883875 0.000672789 3.33104e-21 0.0110284 1.7494e-21 0.00993847)
(0.00815681 0.000848132 1.58736e-20 0.00975331 1.13597e-20 0.00896189)
(0.00739505 0.000902267 -3.11335e-20 0.00840056 -1.26088e-20 0.00790369)
(0.00655793 0.000858395 4.9483e-21 0.00706565 3.02703e-21 0.00681532)
(0.00570065 0.000758344 2.69887e-20 0.00585356 2.31662e-21 0.00577853)
(0.00491704 0.000646025 -2.09771e-20 0.00485305 -5.02276e-21 0.00488558)
(0.00427638 0.00054802 -5.28644e-21 0.0040918 3.82814e-21 0.00418526)
(0.00380188 0.000473331 2.54073e-20 0.00354713 3.69952e-21 0.00367701)
(0.00345164 0.000414721 5.35988e-21 0.00314979 -3.30397e-22 0.00330417)
(0.00320176 0.000369523 -4.49005e-21 0.00286178 6.81116e-22 0.00303543)
(0.00296583 0.000321858 -3.54026e-21 0.00260556 7.90457e-22 0.00278916)
(0.00273184 0.000272805 -5.9313e-21 0.00237087 -4.58987e-22 0.00255447)
(0.0023913 0.000207988 8.73804e-21 0.00207478 4.13384e-22 0.00223563)
(0.00199101 0.000144305 -2.1725e-21 0.00174635 -1.95048e-23 0.00187056)
(0.00145782 7.97979e-05 -8.31713e-22 0.00131305 1.46229e-22 0.0013862)
(0.00103475 4.18714e-05 5.35704e-24 0.000956668 1.17202e-23 0.000995918)
(0.000358607 5.39391e-06 -5.93653e-23 0.000348506 -8.0763e-24 0.000353572)
(0.000628997 1.63128e-05 1.87526e-22 0.000598425 1.14386e-24 0.000613727)
(0.00149727 8.58432e-05 -1.04847e-21 0.00133469 8.87077e-23 0.00141588)
(0.00427725 0.000550334 1.2087e-21 0.00320162 1.00792e-21 0.00373795)
(9.83942e-05 4.33337e-07 1.1042e-23 9.74878e-05 -1.28491e-24 9.79398e-05)
(0.00615801 0.000924173 2.18324e-21 0.0039538 -4.95448e-21 0.00505499)
(0.00419258 0.000454402 -4.46937e-20 0.00279112 2.78884e-21 0.0034939)
(0.00330749 0.000204669 -9.7881e-21 0.0021484 -1.20214e-21 0.0027329)
(0.0108427 -0.00030955 7.29204e-20 0.00451914 2.67683e-21 0.0077302)
(0.0256113 -0.00525169 3.9291e-19 0.0123243 -1.26483e-20 0.0191192)
(0.062427 -0.0204309 6.84591e-20 0.0405446 5.00526e-20 0.0518073)
(0.145705 -0.0562775 3.00418e-20 0.113965 -4.29143e-20 0.130291)
(0.309168 -0.128361 -7.54292e-21 0.268193 -4.99325e-20 0.289299)
(0.601713 -0.257712 7.88714e-20 0.549979 -9.8831e-20 0.575071)
(1.07011 -0.470595 -3.40935e-18 1.02256 2.34488e-19 1.04869)
(1.737 -0.75431 6.48992e-20 1.63661 -4.90954e-21 1.66786)
(2.76981 -1.26565 5.56812e-18 2.82923 -5.05094e-19 2.84688)
(0.00896647 -0.000932829 5.53884e-22 0.0078705 3.76962e-22 0.00843204)
(0.00889635 -0.00110026 -4.09461e-23 0.00850397 3.31311e-22 0.00869682)
(0.00898262 -0.00116356 1.14838e-20 0.00932673 6.51415e-21 0.00915376)
(0.00898901 -0.00109401 6.2738e-22 0.0100969 -1.01342e-21 0.00954381)
(0.00883404 -0.000881278 1.42182e-21 0.010604 -1.52722e-21 0.00971829)
(0.00855463 -0.000568748 4.31506e-22 0.0107607 3.67645e-21 0.0096531)
(0.00820949 -0.00021955 1.29408e-20 0.0105842 1.03047e-20 0.00938951)
(0.00783172 0.000114012 -1.14116e-21 0.0101284 -9.74549e-22 0.00897301)
(0.00741762 0.000393343 3.93494e-22 0.00943612 5.63664e-21 0.00842238)
(0.00694461 0.000589994 3.14073e-20 0.00855085 8.6042e-21 0.0077458)
(0.00639786 0.00069208 2.61592e-21 0.00754006 3.31745e-21 0.00696815)
(0.00578239 0.000707866 -2.29936e-20 0.00648847 -5.79548e-21 0.0061348)
(0.0051329 0.00066236 -3.57365e-21 0.00548775 -6.55378e-21 0.00530976)
(0.00450856 0.000587712 5.88435e-21 0.00461632 6.20388e-21 0.00456185)
(0.00396162 0.000509581 -7.08298e-21 0.00391145 -3.25481e-21 0.00393608)
(0.00351739 0.000441032 -6.11781e-21 0.00336843 -4.23541e-21 0.00344268)
(0.00317074 0.000384403 -9.74917e-21 0.00295544 -1.35422e-21 0.00306295)
(0.0029013 0.000337231 1.41038e-20 0.00263602 2.59304e-21 0.00276831)
(0.00268654 0.000295951 -3.61535e-21 0.00238036 -2.90034e-22 0.00253277)
(0.00251301 0.000258411 1.28083e-22 0.00217148 1.35221e-21 0.00234134)
(0.00238419 0.000225262 -4.73879e-22 0.00200811 -2.98165e-21 0.0021953)
(0.0022344 0.000187204 1.12189e-21 0.00184275 1.57623e-21 0.00203804)
(0.00205324 0.000147905 -1.06729e-21 0.00167106 2.85362e-22 0.00186165)
(0.00180836 0.000107784 -2.18229e-22 0.00147159 -2.22798e-23 0.0016395)
(0.00162741 8.15044e-05 -4.67946e-21 0.00132675 3.09475e-22 0.00147686)
(0.00140348 5.71288e-05 2.86905e-21 0.00115989 -5.03022e-23 0.00128168)
(0.00111964 3.48548e-05 -1.51157e-22 0.000951363 -4.64022e-23 0.00103553)
(0.000857805 1.98597e-05 -5.95673e-22 0.00075188 8.2288e-23 0.000804839)
(0.000556152 8.34204e-06 -5.0296e-22 0.000508371 -6.57199e-23 0.000532245)
(0.000296025 2.40135e-06 -5.86721e-23 0.000281649 1.20147e-23 0.000288824)
(6.7527e-06 1.30104e-09 1.25207e-25 6.74471e-06 9.79064e-27 6.74869e-06)
(0.000224997 1.37981e-06 -4.87037e-23 0.000216342 1.35834e-23 0.000220653)
(0.000760623 1.39929e-05 -8.4117e-24 0.000668603 -1.17566e-23 0.00071444)
(0.00268221 0.000116294 -8.93341e-21 0.0018109 -4.57108e-22 0.00224553)
(0.000113652 2.43709e-07 6.00605e-23 0.000110968 -3.7584e-24 0.000112313)
(0.00112368 7.02644e-07 -8.08459e-22 0.00089262 3.51283e-24 0.00100902)
(0.00381939 -0.000285232 4.92713e-21 0.00215507 4.82432e-22 0.0030066)
(0.0115789 -0.00258731 -3.02888e-19 0.00612149 2.16516e-20 0.00889711)
(0.0361236 -0.0125455 -1.76933e-20 0.024937 3.55502e-21 0.0310251)
(0.0938325 -0.0353535 -1.05861e-21 0.0716734 2.87303e-22 0.0817539)
(0.297578 -0.126553 1.54855e-18 0.265717 -6.23826e-20 0.288257)
(0.00639142 -0.000670544 -1.75235e-21 0.00562575 -9.73625e-22 0.00601875)
(0.00635032 -0.000780949 1.90124e-21 0.00604312 9.4281e-22 0.00619481)
(0.00644393 -0.000834164 2.04675e-22 0.00660218 -1.08987e-21 0.00652309)
(0.00654014 -0.000818945 -8.83547e-21 0.00719695 -5.4552e-21 0.00687003)
(0.00656616 -0.000718358 -5.77616e-22 0.00770491 1.46463e-21 0.00713687)
(0.00650912 -0.000538673 1.02745e-20 0.00803566 4.64595e-21 0.00727263)
(0.00638598 -0.00030684 -5.85498e-22 0.00814944 -3.77241e-21 0.00726642)
(0.00621696 -5.69911e-05 -1.9771e-20 0.00804558 -6.76641e-21 0.00712904)
(0.00600629 0.000178462 3.35416e-20 0.00773515 1.26939e-20 0.00686887)
(0.00574458 0.00037101 -1.06008e-20 0.00723838 -1.05978e-20 0.00649094)
(0.00542137 0.000501158 1.33143e-20 0.00659557 3.97668e-21 0.00600897)
(0.00503445 0.000563702 1.35209e-20 0.00586473 5.23586e-21 0.00545047)
(0.00459896 0.000567995 -2.12994e-20 0.00511544 -5.00102e-21 0.00485815)
(0.00414938 0.000533792 1.56684e-20 0.00441503 1.40869e-21 0.00428293)
(0.00372402 0.000481972 -2.05094e-20 0.00380789 -1.78697e-21 0.00376649)
(0.00335047 0.000427325 6.33274e-21 0.00330898 3.27008e-21 0.00333027)
(0.00303825 0.000376805 4.01952e-21 0.00290977 7.55389e-22 0.00297466)
(0.00278212 0.000331874 -4.12231e-22 0.00259042 6.52347e-22 0.00268692)
(0.00257155 0.00029181 4.20122e-24 0.0023313 -2.97768e-23 0.00245197)
(0.00239504 0.000255081 -4.1892e-22 0.00211593 -6.8115e-22 0.00225588)
(0.00224763 0.000221236 -5.8615e-21 0.00193622 3.95647e-22 0.00209225)
(0.00212126 0.000189637 7.33225e-21 0.00178435 -2.07774e-22 0.00195322)
(0.00201049 0.000160711 -1.34726e-21 0.00165525 5.40127e-22 0.00183326)
(0.00190791 0.000134227 5.47057e-23 0.00154246 -9.24945e-23 0.00172542)
(0.00182296 0.000111318 1.18053e-22 0.00145118 6.12039e-22 0.00163729)
(0.00175597 9.12099e-05 1.53028e-21 0.00137973 4.12621e-23 0.00156813)
(0.00168501 7.15182e-05 -3.37509e-21 0.00131271 1.89122e-23 0.00149912)
(0.00158184 5.12287e-05 3.24457e-21 0.00123196 3.92495e-23 0.00140707)
(0.00145743 3.28343e-05 -2.86094e-21 0.001143 3.39138e-22 0.00130033)
(0.00131078 1.75848e-05 2.48843e-21 0.00104297 -9.67767e-23 0.00117695)
(0.00120705 7.07098e-06 -1.06151e-21 0.000971566 -2.82139e-22 0.00108934)
(0.00101317 -3.65905e-07 2.42187e-21 0.000839113 -1.09829e-22 0.000926129)
(0.000748293 -3.04497e-06 8.51668e-22 0.000647341 -8.33397e-23 0.000697778)
(0.00045408 -2.13415e-06 1.27446e-24 0.000414098 3.98869e-23 0.000434051)
(0.000183454 -5.07416e-07 6.22433e-23 0.000176385 -1.13237e-23 0.000179909)
(0.000109197 -2.24356e-07 -3.07127e-23 0.000106561 1.89964e-24 0.000107872)
(0.000173067 -6.92645e-07 1.56109e-22 0.000166208 -1.2292e-23 0.000169626)
(0.000531934 -7.31862e-06 1.32028e-21 0.000468825 -4.63911e-23 0.000500057)
(0.0021789 -0.000140139 -1.28972e-21 0.00142753 -9.74893e-23 0.00180817)
(0.00563727 -0.000710113 5.03717e-21 0.00274592 -2.19776e-22 0.00415393)
(0.00154031 -0.000158626 -7.1706e-21 0.00126999 3.86882e-22 0.00141759)
(0.00457308 -0.000485369 -8.18773e-24 0.00404127 -9.06238e-24 0.00431468)
(0.00454236 -0.000557597 -1.13174e-20 0.00431726 -5.50099e-21 0.00442851)
(0.00461023 -0.000595699 -2.26477e-22 0.0046864 -6.2437e-22 0.00464836)
(0.00470717 -0.000597683 -1.31959e-20 0.00510606 -5.47583e-21 0.00490758)
(0.00478857 -0.000552506 2.04904e-20 0.0055166 1.04331e-20 0.00515347)
(0.00483349 -0.000456216 -1.46726e-20 0.0058595 -8.60933e-21 0.00534684)
(0.00483599 -0.000315692 -7.11136e-21 0.0060886 -1.55116e-21 0.0054618)
(0.00479817 -0.000146703 6.26179e-21 0.00617641 3.8367e-21 0.0054858)
(0.00472142 3.02329e-05 -2.54418e-20 0.00611098 -1.17794e-20 0.00541411)
(0.00460219 0.000193384 -1.48291e-20 0.00589316 -7.51348e-21 0.00524575)
(0.0044371 0.000324149 -7.31639e-21 0.00554251 -2.12847e-21 0.00498824)
(0.00422198 0.0004111 3.99012e-22 0.00509022 1.22008e-21 0.0046548)
(0.00396035 0.000452347 -1.80558e-21 0.00458014 2.16375e-21 0.00426931)
(0.00366913 0.00045569 -1.39478e-20 0.0040628 -4.13436e-21 0.00386528)
(0.00337154 0.000433925 2.01767e-20 0.0035798 5.7578e-21 0.00347522)
(0.00308955 0.000399517 1.43052e-21 0.00315583 -1.91505e-22 0.00312251)
(0.00283714 0.000361143 -8.66066e-21 0.0027979 -2.7419e-21 0.00281758)
(0.00261831 0.000323161 2.32338e-20 0.00250041 3.52183e-21 0.00255954)
(0.00243042 0.000287062 -5.06999e-21 0.00225272 -6.62433e-22 0.00234171)
(0.00226805 0.000252911 -3.71668e-21 0.00204384 -1.15169e-21 0.00215597)
(0.00212615 0.000220514 3.98066e-21 0.00186579 1.07489e-21 0.00199589)
(0.00200262 0.000190458 -5.29874e-21 0.0017154 -9.70613e-22 0.00185893)
(0.00189332 0.000163066 5.71336e-21 0.00158774 1.16777e-21 0.00174044)
(0.0017955 0.000138451 -1.11177e-21 0.00147843 -8.25468e-22 0.00163679)
(0.00170997 0.000116678 -9.32696e-22 0.00138637 -1.14388e-22 0.00154798)
(0.00163891 9.75331e-05 6.62233e-21 0.00131127 1.64512e-22 0.00147495)
(0.00158211 8.03629e-05 -4.39531e-22 0.00125126 1.35036e-22 0.00141659)
(0.00153686 6.44379e-05 -8.10548e-23 0.00120332 -6.87642e-22 0.00137)
(0.00150234 4.93359e-05 -6.17749e-23 0.00116605 6.43126e-22 0.00133412)
(0.00147262 3.44413e-05 -2.74536e-21 0.00113529 -1.23134e-22 0.0013039)
(0.00145428 1.98079e-05 -2.62215e-21 0.0011147 6.81795e-23 0.00128445)