/*--------------------------------*- C++ -*----------------------------------*\
| =========                 |                                                 |
| \\      /  F ield         | OpenFOAM: The Open Source CFD Toolbox           |
|  \\    /   O peration     | Version:  2312                                  |
|   \\  /    A nd           | Website:  www.openfoam.com                      |
|    \\/     M anipulation  |                                                 |
\*---------------------------------------------------------------------------*/
FoamFile
{
    version     2.0;
    format      ascii;
    arch        "LSB;label=32;scalar=64";
    class       volScalarField;
    location    "150";
    object      turbulenceProperties:L;
}
// * * * * * * * * * * * * * * * * * * * * * * * * * * * * * * * * * * * * * //

dimensions      [0 1 0 0 0 0 0];

internalField   nonuniform List<scalar> 
11040
(
0.000219294
0.000200863
0.000227666
0.000294429
0.000435658
0.000797133
0.000997125
0.00107669
0.001171
0.00125141
0.00128332
0.00128352
0.00126894
0.00125256
0.00123984
0.00123123
0.00122544
0.00122145
0.00121914
0.00121912
0.00122211
0.00122917
0.00123928
0.00125002
0.00126137
0.00127383
0.00128752
0.00130262
0.00131923
0.00133752
0.00135771
0.00138016
0.00140536
0.00143403
0.00146718
0.00150532
0.00154226
0.001492
0.0015137
0.00163421
0.00253204
0.000493546
0.000444364
0.000401435
0.000410056
0.000422214
0.000566573
0.000750544
0.000993792
0.001327
0.00169025
0.00199043
0.00223722
0.00246945
0.00270442
0.00294181
0.00317062
0.00337616
0.00354863
0.00368727
0.00380379
0.00391004
0.00400447
0.00409844
0.00419076
0.00427594
0.00435098
0.00441725
0.00447756
0.00453328
0.00458503
0.00463265
0.00467605
0.00471534
0.00475097
0.0047837
0.0048158
0.00484908
0.00487733
0.0049203
0.00503297
0.00482701
0.000652511
0.000749004
0.000807328
0.000958626
0.00120639
0.00064013
0.000659314
0.000782646
0.000948195
0.00115852
0.00143197
0.00174582
0.00208104
0.0024224
0.00275324
0.00305995
0.00333877
0.00359738
0.00385055
0.00411468
0.00439474
0.00467384
0.0049304
0.00516077
0.00537196
0.00556506
0.00574593
0.00591899
0.00608613
0.00624725
0.00640139
0.00654708
0.00668293
0.00680812
0.00692115
0.00702132
0.00710713
0.00717971
0.00724493
0.00744352
0.00749321
0.00077597
0.000811592
0.000873541
0.000933951
0.0010138
0.00129681
0.00171701
0.00148632
0.000945526
0.00086507
0.000890048
0.000963847
0.00110824
0.00134627
0.00167658
0.00207867
0.00252647
0.00299389
0.00345946
0.00390322
0.0043123
0.00467107
0.00498613
0.00527934
0.00556778
0.00585411
0.00613899
0.00641896
0.00668965
0.00694763
0.00719118
0.00742013
0.00763522
0.00783813
0.00802921
0.00820858
0.00837413
0.00853277
0.00867572
0.00893828
0.00896546
0.000932055
0.000948613
0.000988334
0.00106053
0.00113383
0.00121877
0.00145006
0.00210324
0.00401241
0.0105553
0.0354323
0.0623957
0.0397049
0.0235949
0.0134558
0.00368747
0.00190047
0.00212856
0.00256358
0.00306159
0.00360162
0.00412257
0.00459772
0.00503406
0.00543415
0.00580011
0.00613518
0.00644578
0.00673933
0.00702284
0.00730194
0.00758017
0.00785872
0.00813779
0.00841504
0.00868743
0.0089501
0.00921014
0.0094521
0.00977187
0.00988039
0.0011294
0.00112596
0.00114485
0.00119417
0.00125991
0.00131716
0.00136644
0.00144537
0.0015977
0.00184818
0.00218182
0.00255334
0.00293394
0.00342643
0.00422267
0.00991583
0.0116069
0.303817
0.00191997
0.0350274
0.00279404
0.00460399
0.00472674
0.00473528
0.00499974
0.00534451
0.00571657
0.00609468
0.00646786
0.00682904
0.00717456
0.00750349
0.00781691
0.00811889
0.00841369
0.00870661
0.00900075
0.00931044
0.0096223
0.0099982
0.0102342
0.0013554
0.00133822
0.00132492
0.00133578
0.00137344
0.00143038
0.00149343
0.00155712
0.0016295
0.00172308
0.00184576
0.00199978
0.00217871
0.00236489
0.0025334
0.00268546
0.00284204
0.00312234
0.00374211
0.00651977
0.142726
0.00285418
2.72893
0.00241244
0.0025819
0.00292202
0.0041587
0.00610603
0.0066527
0.00667915
0.00682406
0.00706265
0.0073559
0.00768037
0.00802141
0.00837132
0.00872274
0.00908775
0.00944703
0.00985773
0.0101637
0.00161822
0.00159264
0.00155939
0.00154587
0.00155809
0.00159078
0.00163757
0.00169613
0.0017697
0.00186422
0.00198558
0.00213858
0.00232277
0.00252649
0.00273028
0.00291392
0.00307468
0.00320868
0.00334499
0.00349026
0.0037242
0.00408463
0.00484569
0.00595844
0.0122876
0.00825809
0.00475848
0.0031176
0.0310368
0.00316623
0.00342654
0.00377253
0.00467561
0.00613293
0.00687206
0.00732493
0.00774988
0.00821711
0.00867576
0.00920875
0.00965327
0.00192148
0.00189076
0.00184314
0.0018052
0.00178883
0.00179464
0.00181947
0.00186122
0.00192127
0.00200366
0.00211268
0.00225173
0.00242051
0.00261157
0.00281175
0.00300685
0.00318825
0.00335421
0.00350735
0.00364877
0.00377025
0.00391201
0.00408848
0.0043485
0.00458008
0.00492569
0.0055385
0.00643614
0.00842065
0.0129129
0.211295
0.0156086
0.00687029
0.00399058
0.0247883
0.00554314
0.00422204
0.00497194
0.00618883
0.00720315
0.00815131
0.00227436
0.00224032
0.00218345
0.00212775
0.00208757
0.0020679
0.00206864
0.00208839
0.0021276
0.0021888
0.00227501
0.00238878
0.00253024
0.00269477
0.00287357
0.00305602
0.00323363
0.00340247
0.00356187
0.00371361
0.00385657
0.00399227
0.00412194
0.00424981
0.00436422
0.00446124
0.00456221
0.00470305
0.00488469
0.00513107
0.00533798
0.00582736
0.00688527
0.00936936
0.0174319
0.0251693
0.017794
0.00825553
0.00461402
0.00515774
0.00474493
0.00268623
0.00264968
0.00258652
0.00251743
0.00245662
0.0024117
0.00238606
0.0023807
0.00239632
0.00243449
0.00249658
0.00258448
0.00269869
0.00283626
0.00299124
0.00315573
0.00332217
0.00348565
0.00364414
0.00379779
0.00394707
0.00408991
0.00422692
0.00435887
0.00448252
0.00459277
0.00468731
0.00476744
0.0048326
0.00488953
0.00492848
0.00497238
0.00504892
0.00520984
0.00556376
0.0062964
0.00743178
0.00998516
0.0304788
0.0941081
0.0411815
0.00316913
0.00313064
0.00306287
0.00298385
0.00290657
0.00283961
0.00278865
0.0027568
0.00274597
0.00275765
0.00279298
0.00285293
0.00293795
0.00304616
0.00317366
0.00331496
0.00346422
0.00361665
0.00376923
0.00392081
0.00407026
0.00421399
0.00435115
0.00448373
0.00461013
0.00472763
0.0048346
0.00493089
0.00501651
0.0050924
0.00515748
0.00521179
0.00525588
0.00529474
0.00533154
0.00537097
0.00544477
0.00556229
0.00595188
0.00670465
0.00932403
0.00373706
0.00369689
0.00362523
0.00353812
0.00344711
0.00336067
0.00328567
0.00322696
0.00318777
0.00317058
0.0031766
0.00320679
0.0032613
0.00333894
0.00343723
0.00355244
0.00368021
0.0038164
0.00395775
0.00410237
0.00424816
0.00439008
0.00452584
0.00465714
0.00478321
0.00490247
0.00501384
0.00511719
0.00521294
0.00530174
0.00538461
0.00546233
0.00553535
0.00560379
0.00566804
0.00572682
0.00578091
0.00582418
0.0058626
0.0059182
0.00608372
0.00440697
0.00436535
0.00428997
0.0041957
0.0040928
0.00398926
0.0038924
0.00380807
0.00374063
0.0036934
0.00366833
0.00366657
0.00368872
0.00373398
0.00380076
0.00388654
0.00398823
0.00410256
0.00422664
0.00435842
0.00449534
0.00463148
0.00476357
0.00489268
0.00501798
0.00513835
0.00525297
0.00536164
0.00546466
0.0055626
0.00565629
0.00574678
0.00583517
0.00592279
0.00601091
0.00610056
0.00619277
0.0062871
0.00637949
0.0064781
0.00654142
0.00519951
0.00515631
0.00507689
0.00497568
0.00486168
0.0047423
0.00462504
0.00451627
0.00442106
0.00434356
0.00428646
0.00425152
0.00423977
0.00425128
0.00428498
0.00433919
0.00441182
0.00450045
0.00460268
0.00471663
0.00483969
0.00496559
0.00509065
0.00521533
0.00533844
0.00545895
0.0055762
0.00568991
0.00580019
0.00590742
0.00601225
0.0061155
0.00621813
0.00632141
0.00642663
0.00653494
0.00664787
0.00676732
0.00689423
0.00703818
0.00716315
0.00613852
0.0060932
0.00600929
0.00590126
0.00577656
0.00564205
0.00550541
0.00537338
0.00525144
0.00514432
0.00505543
0.00498702
0.00494071
0.00491725
0.00491659
0.00493766
0.00497894
0.00503883
0.00511548
0.00520734
0.00531207
0.00542362
0.00553811
0.00565554
0.00577429
0.00589319
0.0060116
0.0061292
0.00624588
0.00636183
0.0064775
0.00659352
0.00671062
0.00682991
0.00695249
0.00707923
0.00721136
0.00735042
0.00749797
0.00766069
0.00781307
0.00724416
0.00719665
0.00710821
0.00699354
0.00685821
0.00670867
0.00655296
0.00639818
0.00625014
0.00611395
0.00599357
0.00589176
0.00581062
0.00575158
0.00571534
0.00570189
0.00571035
0.00573946
0.00578804
0.00585495
0.00593844
0.006033
0.00613464
0.00624291
0.00635584
0.0064721
0.00659091
0.0067118
0.00683451
0.00695903
0.00708557
0.00721454
0.0073464
0.00748201
0.00762225
0.00776764
0.00791898
0.00807745
0.00824426
0.00842334
0.00859514
0.00849557
0.00844627
0.00835302
0.00823114
0.0080844
0.00791907
0.00774386
0.00756641
0.00739286
0.00722864
0.00707809
0.00694431
0.00682975
0.00673632
0.0066653
0.00661728
0.00659236
0.00659009
0.0066095
0.00664996
0.00671042
0.00678617
0.00687334
0.00697102
0.0070769
0.00718944
0.00730767
0.00743096
0.00755884
0.00769109
0.00782769
0.00796887
0.0081148
0.00826608
0.00842333
0.00858673
0.00875655
0.00893375
0.00911896
0.00931444
0.00950538
0.00984931
0.00979833
0.00969982
0.00957031
0.00941161
0.00922989
0.00903478
0.00883468
0.0086362
0.00844513
0.00826622
0.00810288
0.00795784
0.00783341
0.00773125
0.00765249
0.00759764
0.00756684
0.00755984
0.00757612
0.00761501
0.0076727
0.00774563
0.0078325
0.00793075
0.00803868
0.00815512
0.00827924
0.0084104
0.00854814
0.00869223
0.00884268
0.00899936
0.00916266
0.00933299
0.00951021
0.0096941
0.00988559
0.010085
0.0102932
0.0104995
0.0112869
0.0112348
0.0111321
0.0109961
0.0108263
0.010629
0.010415
0.0101935
0.00997174
0.00975585
0.009551
0.00936084
0.00918833
0.00903599
0.00890581
0.00879919
0.00871705
0.00865997
0.00862816
0.00862178
0.00864063
0.00868145
0.00874088
0.0088174
0.00890829
0.00901171
0.00912633
0.00925104
0.00938496
0.00952745
0.00967802
0.00983644
0.0100023
0.0101757
0.0103568
0.0105453
0.0107404
0.0109431
0.0111535
0.0113718
0.0115885
0.0128199
0.0127679
0.0126623
0.0125204
0.0123399
0.0121273
0.0118944
0.0116515
0.0114066
0.0111664
0.0109364
0.0107206
0.0105221
0.0103439
0.010188
0.0100561
0.00994942
0.00986886
0.00981496
0.00978819
0.00978889
0.00981458
0.00986209
0.00992946
0.0100138
0.0101133
0.0102264
0.0103518
0.0104883
0.0106352
0.0107917
0.0109574
0.0111315
0.011314
0.0115049
0.0117035
0.0119085
0.0121212
0.0123412
0.0125694
0.012792
0.0144575
0.0144067
0.0142989
0.0141517
0.0139605
0.0137323
0.0134804
0.0132163
0.0129485
0.0126844
0.01243
0.0121898
0.011967
0.0117647
0.0115853
0.0114306
0.0113019
0.0112005
0.011127
0.0110823
0.0110669
0.011079
0.0111156
0.0111748
0.0112534
0.0113494
0.0114612
0.0115873
0.0117263
0.0118772
0.012039
0.0122112
0.0123927
0.0125833
0.0127828
0.0129905
0.0132044
0.0134261
0.0136547
0.0138932
0.0141178
0.0162106
0.016162
0.0160528
0.0159004
0.0156984
0.0154543
0.015183
0.0148971
0.0146061
0.014318
0.0140394
0.0137751
0.0135288
0.0133036
0.013102
0.0129262
0.0127776
0.0126575
0.0125669
0.0125067
0.0124777
0.0124784
0.0125061
0.0125585
0.0126326
0.0127262
0.0128375
0.0129649
0.0131067
0.0132618
0.013429
0.0136076
0.0137962
0.0139944
0.0142021
0.0144181
0.0146403
0.0148705
0.015107
0.0153563
0.0155792
0.0180899
0.0180444
0.0179345
0.0177769
0.0175637
0.0173031
0.0170116
0.0167033
0.0163886
0.0160763
0.0157735
0.0154855
0.0152162
0.014969
0.0147467
0.0145514
0.0143847
0.014248
0.0141425
0.0140691
0.0140288
0.0140204
0.0140409
0.0140881
0.0141588
0.014251
0.0143626
0.0144917
0.0146368
0.0147961
0.0149686
0.0151534
0.0153488
0.0155543
0.0157696
0.0159935
0.0162234
0.0164615
0.0167053
0.0169657
0.0171835
0.0201076
0.0200661
0.0199557
0.0197927
0.0195675
0.0192895
0.018977
0.0186454
0.0183062
0.017969
0.0176416
0.0173298
0.0170377
0.0167691
0.0165268
0.0163131
0.0161297
0.0159781
0.0158594
0.0157748
0.0157253
0.0157097
0.0157249
0.0157685
0.0158374
0.0159293
0.0160422
0.0161739
0.0163228
0.0164869
0.0166651
0.0168564
0.0170588
0.0172719
0.0174949
0.0177269
0.0179647
0.0182108
0.0184619
0.0187341
0.0189446
0.0222764
0.0222396
0.0221291
0.02196
0.0217219
0.0214252
0.0210903
0.0207342
0.0203694
0.0200065
0.019654
0.019318
0.0190032
0.0187135
0.0184519
0.0182207
0.0180218
0.0178567
0.0177266
0.0176327
0.017576
0.017555
0.0175667
0.0176083
0.0176767
0.0177694
0.0178845
0.0180197
0.018173
0.0183426
0.0185268
0.0187245
0.0189342
0.0191546
0.0193854
0.0196252
0.0198707
0.0201248
0.020383
0.0206672
0.0208686
0.0246106
0.024579
0.0244683
0.0242921
0.0240396
0.0237227
0.0233637
0.0229814
0.0225897
0.0221999
0.0218214
0.0214607
0.0211229
0.0208121
0.0205315
0.0202835
0.02007
0.0198925
0.0197522
0.0196504
0.0195881
0.0195635
0.019573
0.0196139
0.019683
0.0197779
0.0198962
0.0200357
0.0201941
0.0203697
0.0205603
0.0207651
0.0209822
0.0212104
0.0214492
0.0216972
0.0219509
0.0222132
0.022479
0.0227755
0.0229673
0.0271257
0.0270997
0.0269883
0.0268035
0.0265346
0.0261952
0.02581
0.0253996
0.0249791
0.024561
0.0241553
0.0237691
0.0234078
0.0230758
0.0227763
0.0225119
0.0222845
0.0220955
0.0219463
0.0218379
0.0217714
0.0217445
0.0217533
0.0217949
0.021866
0.021964
0.0220865
0.022231
0.0223952
0.0225772
0.0227749
0.0229869
0.0232118
0.023448
0.0236949
0.0239511
0.0242131
0.0244837
0.0247572
0.0250657
0.0252477
0.029839
0.0298186
0.0297055
0.02951
0.0292221
0.0288574
0.0284433
0.0280021
0.0275507
0.0271024
0.026668
0.0262552
0.0258697
0.025516
0.0251975
0.0249169
0.024676
0.0244763
0.0243188
0.0242049
0.0241352
0.0241073
0.0241164
0.0241596
0.0242336
0.0243355
0.0244628
0.024613
0.0247836
0.0249725
0.0251778
0.0253975
0.0256301
0.0258749
0.0261302
0.026395
0.0266655
0.0269447
0.0272262
0.0275466
0.0277196
0.0327696
0.0327545
0.0326382
0.032429
0.0321186
0.031725
0.0312784
0.0308034
0.0303183
0.0298375
0.0293725
0.0289317
0.0285209
0.0281449
0.0278072
0.0275103
0.0272561
0.027046
0.026881
0.0267623
0.0266904
0.0266624
0.0266726
0.0267183
0.0267958
0.0269023
0.0270352
0.0271915
0.0273689
0.0275651
0.0277781
0.0280058
0.0282465
0.0284996
0.0287633
0.0290366
0.0293157
0.0296034
0.0298928
0.0302245
0.0303894
0.0359389
0.0359285
0.0358064
0.0355796
0.035242
0.034815
0.0343316
0.033819
0.0332968
0.0327807
0.0322829
0.0318122
0.0313748
0.0309755
0.0306179
0.0303045
0.030037
0.0298167
0.0296445
0.0295214
0.0294479
0.0294202
0.0294322
0.0294808
0.0295626
0.0296742
0.0298129
0.0299758
0.0301603
0.0303639
0.0305847
0.0308205
0.0310695
0.0313309
0.0316033
0.0318851
0.0321728
0.0324691
0.0327667
0.0331091
0.033268
0.0393708
0.0393638
0.0392325
0.0389827
0.0386123
0.0381461
0.0376207
0.0370656
0.0365023
0.0359475
0.0354142
0.0349115
0.0344457
0.0340219
0.0336435
0.0333129
0.0330318
0.0328012
0.0326218
0.0324945
0.0324196
0.0323928
0.0324066
0.0324584
0.0325443
0.032661
0.0328054
0.0329746
0.0331658
0.0333766
0.0336048
0.0338487
0.0341053
0.0343743
0.0346548
0.0349445
0.0352402
0.0355444
0.0358495
0.0362008
0.0363543
0.0430925
0.0430868
0.0429413
0.0426616
0.042251
0.0417387
0.0411649
0.0405618
0.0399526
0.039355
0.0387828
0.0382453
0.0377491
0.0372991
0.0368987
0.03655
0.0362545
0.0360132
0.0358264
0.0356947
0.0356183
0.0355922
0.035608
0.0356629
0.035753
0.0358749
0.0360252
0.0362009
0.0363991
0.0366172
0.036853
0.0371045
0.037369
0.0376457
0.0379339
0.0382313
0.0385348
0.0388465
0.039159
0.0395181
0.0396701
0.0471342
0.0471267
0.0469604
0.046642
0.0461822
0.0456153
0.0449854
0.0443277
0.0436669
0.0430218
0.0424067
0.0418312
0.0413019
0.0408236
0.0403994
0.0400313
0.0397203
0.0394673
0.0392722
0.0391352
0.0390566
0.0390304
0.0390469
0.0391039
0.0391971
0.0393227
0.0394772
0.0396576
0.0398608
0.0400843
0.0403256
0.0405827
0.0408528
0.041135
0.0414286
0.0417314
0.0420403
0.0423571
0.0426745
0.0430387
0.0431868
0.0515305
0.0515168
0.0513207
0.0509523
0.0504322
0.0498007
0.049106
0.048386
0.0476671
0.046969
0.0463062
0.0456887
0.045123
0.0446136
0.0441633
0.0437738
0.0434459
0.0431798
0.0429753
0.0428322
0.0427506
0.042724
0.0427414
0.0428005
0.0428972
0.0430271
0.0431867
0.0433727
0.0435819
0.0438118
0.0440598
0.0443235
0.0446005
0.0448893
0.0451893
0.0454981
0.0458132
0.0461356
0.0464589
0.0468267
0.0469811
0.0563202
0.0562942
0.0560566
0.0556242
0.0550308
0.0543231
0.0535536
0.0527626
0.0519782
0.0512206
0.0505046
0.0498402
0.0492338
0.0486897
0.0482102
0.0477966
0.0474491
0.0471675
0.0469509
0.0467988
0.0467108
0.0466797
0.046693
0.0467489
0.0468429
0.0469707
0.0471285
0.047313
0.0475212
0.0477502
0.0479974
0.0482606
0.0485376
0.0488258
0.049125
0.0494336
0.0497486
0.0500709
0.0503934
0.0507605
0.0509029
0.0615468
0.0615004
0.0612064
0.0606939
0.0600124
0.0592157
0.05836
0.0574883
0.0566297
0.055805
0.0550292
0.0543121
0.0536598
0.0530761
0.0525632
0.0521218
0.0517517
0.0514523
0.0512223
0.0510608
0.0509677
0.0509352
0.0509493
0.0510081
0.051107
0.0512407
0.0514052
0.0515965
0.0518114
0.0520467
0.0522999
0.0525687
0.0528511
0.0531445
0.053448
0.0537607
0.0540798
0.054405
0.0547316
0.0550942
0.0552628
0.0672594
0.0671812
0.0668122
0.0662008
0.0654161
0.0645181
0.0635653
0.0626021
0.0616591
0.0607576
0.0599133
0.0591358
0.0584309
0.0578017
0.0572496
0.0567746
0.0563755
0.0560509
0.0557984
0.0556159
0.0555023
0.0554493
0.0554414
0.0554776
0.0555539
0.0556655
0.0558084
0.0559791
0.0561743
0.0563913
0.0566277
0.0568813
0.0571501
0.0574308
0.0577228
0.0580257
0.0583355
0.0586525
0.0589687
0.0593294
0.0594473
0.073513
0.0733891
0.0729221
0.0721904
0.0712863
0.0702748
0.0692154
0.0681527
0.0671164
0.0661281
0.0652038
0.0643544
0.0635864
0.0629029
0.0623048
0.0617913
0.0613611
0.0610131
0.0607454
0.0605562
0.0604456
0.0604042
0.0604142
0.0604727
0.060574
0.0607113
0.0608789
0.0610723
0.0612874
0.061521
0.0617703
0.0620329
0.0623075
0.0625904
0.0628819
0.0631821
0.0634889
0.0637995
0.0641142
0.0644445
0.064658
0.0803667
0.0801829
0.0795956
0.0787244
0.0776844
0.076544
0.0753643
0.0741915
0.073055
0.0719745
0.070964
0.0700331
0.0691886
0.0684349
0.0677734
0.0672025
0.0667179
0.0663142
0.0659856
0.0657272
0.065537
0.0654072
0.0653215
0.0652822
0.0652875
0.0653333
0.0654159
0.0655325
0.0656798
0.0658548
0.0660544
0.0662756
0.0665161
0.0667706
0.0670392
0.0673236
0.0676158
0.0679178
0.0682147
0.0685763
0.0685961
0.0878761
0.087617
0.0868935
0.0858798
0.0847062
0.0834327
0.0821172
0.0808097
0.0795466
0.0783534
0.0772461
0.0762316
0.0753114
0.0744863
0.0737584
0.0731317
0.0726107
0.0721981
0.0718935
0.0716926
0.0715943
0.0715829
0.0716316
0.0717313
0.0718715
0.0720418
0.0722339
0.0724417
0.0726607
0.0728873
0.0731189
0.0733536
0.0735909
0.0738282
0.0740666
0.0743083
0.0745532
0.0747952
0.0750517
0.0752667
0.0756184
0.0960914
0.0957304
0.0948478
0.0936996
0.0924269
0.0910662
0.0896542
0.0882268
0.0868177
0.0854615
0.0841914
0.083032
0.0819944
0.0810756
0.080261
0.0795307
0.0788663
0.078255
0.0776914
0.0771773
0.0767165
0.0763145
0.0759644
0.0756798
0.0754642
0.0753156
0.0752312
0.0752075
0.0752405
0.075325
0.0754552
0.0756268
0.0758331
0.0760715
0.0763325
0.0766186
0.0769219
0.0772453
0.0775498
0.0780032
0.0777488
0.105084
0.104603
0.103529
0.102219
0.100837
0.0994148
0.0979804
0.0965497
0.0951249
0.0937072
0.092308
0.0909533
0.0896827
0.0885436
0.0875799
0.0868225
0.0862832
0.0859551
0.0858174
0.0858365
0.0859977
0.0862604
0.0865773
0.0869184
0.0872634
0.0875965
0.0879059
0.0881828
0.088422
0.0886214
0.0887814
0.0889031
0.0889913
0.0890489
0.0890757
0.0890774
0.0890776
0.0890494
0.0890653
0.0888533
0.0896135
0.114947
0.114436
0.113268
0.111837
0.110286
0.10865
0.107003
0.105423
0.103957
0.102618
0.101383
0.100202
0.0990115
0.0977551
0.0963986
0.0949388
0.0934023
0.0918378
0.0903014
0.0888521
0.0875149
0.0863244
0.0852915
0.0844367
0.0837545
0.0832299
0.0828475
0.0825926
0.0824508
0.0824092
0.0824564
0.0825833
0.0827794
0.0830397
0.083354
0.0837239
0.0841333
0.0845975
0.0850296
0.0857876
0.0851422
0.125615
0.125238
0.124316
0.123253
0.122032
0.120513
0.118663
0.116545
0.114289
0.112076
0.11009
0.108486
0.107364
0.10676
0.106654
0.106975
0.107618
0.108465
0.109409
0.11034
0.111285
0.112228
0.113178
0.11408
0.114917
0.115676
0.11633
0.11684
0.117175
0.117319
0.117271
0.117035
0.116623
0.116047
0.115318
0.114453
0.113519
0.112462
0.11149
0.109865
0.110768
0.136598
0.136034
0.13516
0.134646
0.134497
0.134465
0.134339
0.133909
0.132949
0.131236
0.128624
0.12511
0.120873
0.116223
0.111503
0.107002
0.102916
0.0993463
0.0963203
0.0938419
0.0918055
0.0901444
0.0888409
0.0878501
0.0871114
0.0865723
0.0861992
0.0859476
0.0858076
0.0857449
0.0857424
0.0857984
0.0859104
0.0860798
0.0863011
0.0865758
0.0868881
0.0872615
0.0876255
0.0881861
0.088056
0.14745
0.146194
0.144323
0.142792
0.141976
0.141964
0.1428
0.144418
0.14659
0.148909
0.150816
0.151728
0.151254
0.149393
0.146518
0.143179
0.139879
0.136961
0.134599
0.132833
0.131698
0.131164
0.131432
0.132245
0.133429
0.134893
0.136477
0.137841
0.138615
0.138849
0.138814
0.138634
0.138332
0.137934
0.137463
0.136956
0.136383
0.135951
0.134946
0.136389
0.128898
0.158939
0.159256
0.15661
0.149045
0.137717
0.12577
0.115299
0.10686
0.100296
0.0952789
0.0915008
0.0887168
0.0867378
0.0854204
0.0846531
0.084346
0.0844246
0.0848255
0.0854935
0.0863896
0.0874625
0.0884585
0.089535
0.0906261
0.0917054
0.0927719
0.0937897
0.0949124
0.0961827
0.0975062
0.0988538
0.100229
0.10166
0.103193
0.104847
0.106656
0.108686
0.110994
0.113827
0.115822
0.123956
0.00318094
0.00447631
0.00557587
0.00644656
0.00715096
0.00775501
0.00829249
0.00878071
0.00923147
0.0096451
0.0100339
0.0104121
0.0107962
0.0111866
0.0116015
0.0120901
0.0125209
0.0137196
0.0611462
0.0107225
0.0757926
0.081531
0.0305371
0.0228129
0.0214309
0.0220753
0.0238905
0.0254148
0.0267357
0.0279629
0.029266
0.0307094
0.0322987
0.0340549
0.0360043
0.0381419
0.0404746
0.0429433
0.0454664
0.047993
0.0504882
0.052913
0.0552657
0.0575256
0.0597122
0.0598423
0.0606935
0.0635931
0.0668466
0.0698695
0.0728296
0.0755411
0.0784159
0.0814265
0.0844866
0.08806
0.0919905
0.0937886
0.100383
0.105861
0.111828
0.116574
0.12025
0.126814
0.134083
0.140517
0.1477
0.155099
0.163613
0.173302
0.175448
0.190498
0.191452
0.22922
0.00652628
0.00637818
0.00708246
0.0078277
0.0084926
0.00907209
0.00957904
0.0100287
0.0104353
0.0108078
0.011153
0.0114788
0.0117965
0.0121161
0.0124433
0.0127959
0.0131382
0.0135147
0.0137697
0.0147275
0.0359871
0.0133274
0.0212135
0.830348
0.0420363
0.026514
0.0238568
0.0239333
0.0255509
0.0273842
0.029093
0.0306751
0.0322225
0.0338602
0.0357014
0.0377832
0.0401208
0.0426608
0.0452969
0.0479659
0.0506224
0.0532229
0.0557547
0.0581392
0.0607729
0.0588687
0.0597443
0.0612854
0.0637882
0.0665416
0.0693114
0.0716815
0.07401
0.0765441
0.0791159
0.0822986
0.0858443
0.0909593
0.100008
0.106218
0.112473
0.117823
0.121305
0.126883
0.134314
0.141012
0.148073
0.155503
0.16454
0.175852
0.178479
0.192664
0.193451
0.230388
0.0121134
0.0136248
0.0115335
0.0111118
0.0112029
0.0114609
0.011748
0.0120171
0.012268
0.0125088
0.0127434
0.0129738
0.0132027
0.0134356
0.0136757
0.0139318
0.014193
0.0144779
0.0147571
0.0149919
0.0151064
0.0153072
0.0171104
0.066655
0.0314184
0.0657114
0.0516428
0.0353748
0.0285502
0.0269534
0.0276037
0.0293925
0.0315217
0.0335768
0.0355755
0.0376464
0.0398926
0.0423554
0.0449865
0.0477511
0.0506043
0.0534754
0.0562909
0.0588769
0.0616293
0.0629873
0.0628913
0.0628991
0.0644574
0.0670039
0.0699949
0.0726235
0.0748769
0.0773937
0.0798328
0.0828194
0.0858424
0.0938469
0.100072
0.106194
0.112679
0.119054
0.123156
0.127762
0.13512
0.142126
0.148994
0.156224
0.165169
0.177309
0.182244
0.195742
0.196067
0.231469
0.00999286
0.0126745
0.017409
0.0225515
0.0210885
0.0187594
0.0173898
0.0165361
0.0159991
0.0156698
0.0154789
0.0153809
0.0153494
0.0153701
0.015434
0.0155376
0.0156656
0.0158256
0.0160142
0.0162103
0.0163913
0.0165117
0.0164227
0.0165124
0.0167837
0.0275065
0.0127453
2.35594
0.0494539
0.040258
0.0341674
0.0313351
0.0307054
0.0317479
0.0339991
0.0366428
0.0393407
0.0420519
0.0447868
0.0475767
0.0504686
0.0534792
0.0565466
0.0594617
0.0621319
0.066627
0.0684501
0.0682293
0.0687931
0.070876
0.0742074
0.0775401
0.0803213
0.0833241
0.0860664
0.0892476
0.0924124
0.095334
0.100091
0.105765
0.112242
0.119456
0.124512
0.128966
0.13612
0.143591
0.150507
0.157395
0.165788
0.177972
0.184891
0.198223
0.198355
0.232648
0.0102427
0.0112367
0.0126443
0.0145081
0.0171588
0.0211487
0.0276432
0.0357497
0.0324461
0.026635
0.0232501
0.0212192
0.019928
0.0190873
0.0185396
0.0181936
0.0179774
0.0178646
0.0178398
0.0178759
0.0179524
0.0180426
0.0181076
0.0180943
0.0178967
0.0176267
0.0172967
0.105828
0.0170144
0.0207444
0.0776305
0.171313
0.046794
0.0391622
0.0364104
0.0356778
0.0370645
0.0398424
0.0432155
0.0466944
0.0502037
0.053679
0.0570033
0.0601016
0.0626062
0.067089
0.0709522
0.0721893
0.0722958
0.0731887
0.0757175
0.0789785
0.0819665
0.0852216
0.0883349
0.0918181
0.0955175
0.097594
0.10101
0.105597
0.11153
0.118963
0.125049
0.129918
0.136944
0.144955
0.152304
0.159163
0.166965
0.178716
0.186687
0.199805
0.200031
0.233076
0.010446
0.0109741
0.0116608
0.0124638
0.0134408
0.0146486
0.0161652
0.0181397
0.020912
0.0251764
0.0327466
0.0478431
0.0447591
0.0332083
0.027774
0.0248131
0.0229988
0.0218524
0.0211117
0.0206392
0.0203493
0.0201823
0.0200941
0.0200404
0.0199771
0.0198438
0.0195712
0.0192262
0.0191537
0.018577
0.0456531
0.0264545
0.189206
0.624125
0.066714
0.0483041
0.0441237
0.0423408
0.0417651
0.0435539
0.0471536
0.051517
0.0560554
0.0604246
0.0637521
0.0676348
0.072002
0.0750918
0.0761052
0.0762586
0.0774791
0.0799052
0.0827015
0.0860229
0.0893472
0.0930198
0.0972154
0.100019
0.102935
0.106304
0.111095
0.118024
0.124755
0.130372
0.137465
0.145918
0.15388
0.161086
0.168586
0.17989
0.188368
0.201033
0.201432
0.232565
0.0102874
0.0106489
0.0110937
0.0115906
0.0121837
0.0128732
0.0136548
0.014551
0.0156072
0.0168939
0.0185263
0.0206905
0.0237716
0.0286362
0.0377857
0.0606097
0.0522939
0.0370337
0.0307677
0.0274576
0.0254847
0.0242423
0.0234412
0.0229169
0.022566
0.0223039
0.0220767
0.0218136
0.0214973
0.0209459
0.0205057
0.0201361
0.123029
0.0200853
0.0438819
0.123192
0.17659
0.07387
0.0552818
0.0534887
0.0510015
0.0501592
0.0523172
0.0564635
0.0611005
0.0660591
0.0716476
0.0772086
0.0807686
0.0813923
0.0811673
0.0817539
0.0833724
0.0863236
0.0898259
0.0937639
0.0982547
0.101958
0.105243
0.107902
0.111336
0.117122
0.123811
0.130199
0.137696
0.146564
0.155065
0.1627
0.170143
0.181178
0.190082
0.202315
0.202968
0.231618
0.00968043
0.00997501
0.0103102
0.0106565
0.0110836
0.0116026
0.0121991
0.0128727
0.0136251
0.0144552
0.0153711
0.016397
0.0175813
0.0190105
0.0208298
0.0232843
0.0268474
0.0327325
0.0447772
0.0810162
0.0535728
0.0388784
0.0328509
0.0296288
0.0276922
0.0264499
0.0256136
0.0250123
0.0245412
0.0241123
0.0236301
0.0230189
0.0221352
0.0216716
0.0207744
0.0430734
0.0182257
0.0321785
0.472234
0.147776
0.0796252
0.0690992
0.0704823
0.0661584
0.0623678
0.0627222
0.066306
0.0722244
0.07931
0.0849125
0.0872962
0.0872345
0.0867037
0.0877525
0.090261
0.0939839
0.0985877
0.102979
0.107139
0.109983
0.11245
0.116766
0.122588
0.129235
0.137338
0.146876
0.155988
0.163972
0.17133
0.182086
0.19145
0.203511
0.204791
0.230901
0.00791922
0.00808522
0.00829481
0.00847292
0.00873017
0.00908135
0.00954413
0.0101347
0.0108612
0.0117087
0.0126517
0.0136676
0.0147415
0.0158694
0.0170621
0.0183549
0.0197938
0.0215073
0.0236778
0.0266278
0.0310714
0.0388268
0.057071
0.0970259
0.0520623
0.0400471
0.0346638
0.0316606
0.0297888
0.0285324
0.0276169
0.0268818
0.0261897
0.0254703
0.0245779
0.0235334
0.0228063
0.021052
0.0353363
0.0180237
0.0661643
0.488298
0.148443
0.0862542
0.088624
0.100215
0.0906384
0.0796021
0.0774172
0.0802151
0.0845913
0.0881313
0.0899157
0.0913358
0.093212
0.0961487
0.100047
0.104031
0.108323
0.111572
0.113776
0.116952
0.121503
0.127647
0.136051
0.146454
0.156568
0.165077
0.172277
0.182464
0.192069
0.20413
0.206694
0.23071
0.0102982
0.015366
0.00910348
0.00896557
0.0098747
0.0107046
0.00926252
0.00605923
0.00557738
0.00654658
0.00781412
0.00915525
0.0105084
0.0118815
0.0132483
0.0146351
0.0160338
0.0174616
0.0189482
0.0205445
0.0223331
0.0244591
0.0271749
0.0309446
0.036851
0.0480518
0.0819294
0.080728
0.0508838
0.0412848
0.0365126
0.0336913
0.0318291
0.0304807
0.0294097
0.0284185
0.0274442
0.0262379
0.0248108
0.0236076
0.0245806
0.0354474
0.0190373
0.23373
0.217032
0.6034
0.120584
0.118461
0.132184
0.140294
0.11578
0.0969219
0.0899847
0.0888958
0.090763
0.0948432
0.100439
0.10601
0.111276
0.114916
0.11664
0.118409
0.121048
0.125576
0.133239
0.1441
0.155717
0.165694
0.173321
0.182849
0.192185
0.203959
0.208365
0.230842
0.0835493
0.101708
0.0748716
0.0728219
0.0773191
0.0830076
0.0763559
0.790915
0.0299563
0.0169667
0.0124769
0.0133626
0.0238558
0.0126424
0.00761983
0.00882849
0.0104958
0.0122772
0.0140424
0.0157964
0.0175149
0.0192463
0.0210524
0.0230094
0.025232
0.0279198
0.0314133
0.0364219
0.0447038
0.0625435
0.144118
0.0702419
0.0507634
0.0428348
0.0385022
0.035751
0.0338096
0.0322939
0.0309263
0.0296042
0.0280195
0.0261282
0.0243602
0.274709
0.041064
0.0344446
0.213895
0.181332
1.41582
0.144613
0.142111
0.124023
0.135008
0.159802
0.112612
0.0976436
0.0955634
0.0988047
0.105224
0.112563
0.118441
0.122437
0.12467
0.126921
0.131787
0.140566
0.151852
0.163229
0.17258
0.182604
0.192064
0.203409
0.209907
0.231158
0.0100279
0.0103203
0.010535
0.0107725
0.0110904
0.0115924
0.0122572
0.0131584
0.0145504
0.0168491
0.021456
0.0331327
0.233789
0.081141
0.0622445
0.0216678
0.0168103
0.0188395
0.0128004
0.0102857
0.00968218
0.0123732
0.0147907
0.0169628
0.019049
0.0211539
0.0233574
0.0257674
0.028552
0.0319917
0.0365653
0.0433896
0.0555505
0.0880046
0.121786
0.0660706
0.0516941
0.0447968
0.0406727
0.0378633
0.0357294
0.0338666
0.032128
0.0300449
0.0281199
0.0264415
0.022392
0.313486
0.0282896
0.135432
0.426751
0.121186
0.107793
0.145987
0.138351
0.13232
0.192897
0.140588
0.112934
0.107048
0.108807
0.114177
0.120608
0.12669
0.132937
0.140835
0.150364
0.160571
0.169967
0.180159
0.190053
0.201282
0.210718
0.231349
0.00621446
0.00645501
0.00673689
0.00705109
0.00740464
0.00781527
0.00828651
0.00880326
0.00935618
0.00996685
0.010669
0.011454
0.0127403
0.0143238
0.0173517
0.023151
0.0363234
0.428886
0.0425795
0.0441599
0.0307367
0.0212922
0.0216263
0.0208511
0.0102846
0.0133222
0.0158516
0.0183541
0.0208189
0.0233251
0.0259873
0.0289505
0.032447
0.0368553
0.0429114