/*--------------------------------*- C++ -*----------------------------------*\
| =========                 |                                                 |
| \\      /  F ield         | OpenFOAM: The Open Source CFD Toolbox           |
|  \\    /   O peration     | Version:  2312                                  |
|   \\  /    A nd           | Website:  www.openfoam.com                      |
|    \\/     M anipulation  |                                                 |
\*---------------------------------------------------------------------------*/
FoamFile
{
    version     2.0;
    format      ascii;
    arch        "LSB;label=32;scalar=64";
    class       volScalarField;
    location    "150";
    object      turbulenceProperties:epsilon;
}
// * * * * * * * * * * * * * * * * * * * * * * * * * * * * * * * * * * * * * //

dimensions      [0 2 -3 0 0 0 0];

internalField   nonuniform List<scalar> 
11040
(
1224.33
3889.92
6450.72
7285.78
7270.55
8592.72
4908.43
3853.29
3551.9
3967.9
5642.07
8130.18
11216.1
14537.1
17662.7
20251.9
22127
23251.1
23662.5
23438.8
22564.5
21147.3
19593.8
18123.5
16716.5
15295.8
13870.6
12457.2
11063
9693.08
8353.57
7054.06
5808.58
4632.67
3544.93
2575
1724.51
947.799
473.135
262.731
67.6793
27.7519
42.5638
101.204
396.341
1586.15
5414.56
10657.9
15255
20521.3
24757.8
23354.8
18982.8
14323
10552.4
7816.73
5898.9
4552.12
3594.2
2905.67
2394.63
2002.45
1718.4
1492.93
1299.01
1140.88
1015.19
915.686
835.502
769.702
714.711
668.237
628.586
594.451
564.43
537.317
510.875
482.271
438.809
394.773
332.738
673.952
9.15606
5.28477
3.89391
2.08993
1.22587
57.3414
409.872
1289.62
2736.56
4445.25
5985.18
7239.12
8154.26
8632.59
8616.71
8126.69
7264.61
6199.24
5102.44
4107.61
3282
2653.31
2205.34
1867.79
1609.55
1407.35
1244.03
1108.9
995.078
898.219
815.262
744.19
683.507
631.68
587.828
550.808
520.444
492.091
470.965
407.579
475.236
4.56738
3.8191
2.84416
2.1664
1.55847
0.590144
0.189439
0.429355
6.26791
25.8906
60.292
108.725
183.877
313.235
528.8
848.483
1257.11
1698.6
2091.41
2361.31
2472.72
2434.42
2290.33
2085.4
1864.43
1657.65
1473.51
1314.57
1179.91
1066.9
972.212
892.609
825.266
767.541
717.792
674.467
637.683
602.873
577.423
515.509
544.698
2.1943
2.04511
1.73623
1.30884
0.999345
0.746432
0.388678
0.107508
0.0131392
0.000625432
1.44987e-05
2.31636e-06
7.65493e-06
2.93067e-05
0.00011494
0.00891723
0.555675
4.47136
19.0437
58.4221
141.866
273.861
431.172
585.896
718.528
820.928
890.684
930.13
944.342
939.249
920.563
893.213
861.154
827.131
793.265
760.502
730.409
699.631
675.784
627.281
634.647
1.01754
1.03007
0.963755
0.814202
0.657152
0.549994
0.4736
0.377232
0.255536
0.148567
0.0813611
0.0461094
0.0278936
0.0162031
0.00808484
0.000574016
0.000345895
1.82785e-08
0.67625
9.77838e-06
0.0321459
0.0688458
0.638498
3.69326
12.1097
28.9594
56.6115
96.007
146.594
206.485
272.928
342.715
412.536
479.465
540.753
593.512
636.16
665.476
686.231
680.905
704.99
0.490527
0.516221
0.537273
0.520031
0.465316
0.395591
0.33306
0.281971
0.235114
0.187909
0.142555
0.103342
0.0732802
0.0527392
0.0400115
0.0316588
0.025254
0.0176007
0.00923467
0.00153594
1.38434e-07
0.0248121
1.88403e-11
0.0702012
0.0647484
0.0463117
0.070458
0.0994858
0.35713
1.39886
4.30479
10.7988
23.2866
44.8163
78.6558
127.363
191.754
270.171
359.715
441.939
558.056
0.241422
0.257321
0.279984
0.289914
0.280929
0.25854
0.230243
0.200098
0.168921
0.137275
0.106746
0.0793776
0.0570731
0.040797
0.0299277
0.0230827
0.0186277
0.0157144
0.0132769
0.0111528
0.00855819
0.00597292
0.00321339
0.00159195
0.000163324
0.000555764
0.00338003
0.0221372
9.42727e-06
0.0342717
0.0181834
0.0114113
0.0436005
0.129094
0.514775
1.93137
6.04803
16.0423
37.2827
71.4119
147.718
0.121446
0.129536
0.143451
0.155897
0.161684
0.159605
0.15107
0.137965
0.12151
0.102731
0.0831212
0.0644239
0.0482581
0.0356193
0.0265147
0.0202806
0.0160508
0.0131101
0.0109736
0.00937639
0.00823871
0.00710153
0.00593226
0.0046097
0.00374128
0.00281206
0.00181618
0.00107092
0.000440204
0.000114753
2.50472e-08
6.33945e-05
0.000839262
0.00805303
1.44946e-05
0.00174397
0.0117113
0.0506843
0.262311
0.991618
5.60049
0.0618707
0.065718
0.0728372
0.0807686
0.087168
0.0905344
0.0904049
0.0870343
0.0807929
0.072129
0.0618016
0.0508421
0.0403905
0.0313931
0.0242796
0.0189806
0.0151422
0.0123538
0.0102877
0.00870803
0.00748981
0.00652578
0.00574728
0.00509016
0.00458187
0.00420106
0.00383993
0.00338734
0.0028975
0.0023753
0.00203318
0.00146002
0.000808161
0.000291379
4.17906e-05
1.34381e-05
3.74812e-05
0.000409151
0.00501657
0.0158116
0.00336582
0.0317938
0.0335844
0.036987
0.041217
0.0454524
0.0489343
0.0510717
0.0515339
0.0502033
0.0471283
0.0426118
0.0371037
0.0312103
0.0255812
0.0206775
0.0166917
0.0135894
0.0112137
0.00938637
0.00795695
0.00681972
0.00591586
0.00518567
0.0045865
0.00410202
0.0037235
0.00343393
0.00321102
0.00304407
0.00290693
0.00281965
0.00272216
0.00255491
0.00224109
0.0017196
0.00107844
0.000600947
0.000225131
7.16604e-06
2.31441e-07
2.78677e-06
0.0164114
0.0172334
0.0188098
0.0208825
0.0231937
0.0254599
0.0273724
0.0286597
0.0291145
0.0286246
0.0272033
0.0249882
0.0222187
0.0192258
0.0163175
0.0137083
0.011494
0.00967543
0.00820126
0.00700463
0.00603108
0.00524927
0.00461799
0.00409546
0.00366442
0.00331347
0.00302988
0.00280021
0.0026142
0.00246229
0.00234117
0.00224636
0.00217376
0.00211257
0.00205656
0.00199777
0.0018883
0.0017279
0.00131236
0.00083361
0.000267358
0.00848747
0.00886219
0.00958392
0.0105631
0.0117235
0.0129771
0.0142032
0.0152654
0.0160301
0.0163806
0.0162567
0.0156532
0.0146327
0.0133184
0.0118592
0.010394
0.00902398
0.00780323
0.00674678
0.00584457
0.00508259
0.00445656
0.0039454
0.0035189
0.00316232
0.00286564
0.00261934
0.00241404
0.00224147
0.00209501
0.00196896
0.00185929
0.00176321
0.00167891
0.00160457
0.00154053
0.00148483
0.00144317
0.00140801
0.0013575
0.00120942
0.00438859
0.00455829
0.00488721
0.00534142
0.00589921
0.00653595
0.00721124
0.00787157
0.00845473
0.00889556
0.00914128
0.0091589
0.00894092
0.00851516
0.00793235
0.00725486
0.00654279
0.00584335
0.00518686
0.0045874
0.00405353
0.00359754
0.00321481
0.00288868
0.00261078
0.00237461
0.00217404
0.00200306
0.00185624
0.00172891
0.00161716
0.00151768
0.00142777
0.00134512
0.00126795
0.00119505
0.00112547
0.00105956
0.000999902
0.000941124
0.000906583
0.00226479
0.00234163
0.00249163
0.00270062
0.002963
0.00327279
0.00361753
0.00397883
0.00433281
0.00465044
0.00490323
0.00506643
0.00512282
0.00506761
0.00491007
0.00466925
0.0043693
0.00403512
0.00368839
0.00334466
0.00301724
0.00272268
0.00246484
0.00223745
0.00203809
0.001864
0.00171211
0.00157929
0.00146257
0.00135923
0.00126689
0.00118347
0.00110726
0.00103665
0.000970408
0.000907651
0.000847517
0.000789227
0.00073269
0.000674551
0.000628792
0.00116578
0.00120085
0.00126935
0.00136488
0.00148661
0.00163352
0.00180183
0.00198556
0.00217651
0.00236354
0.00253421
0.00267615
0.00277791
0.00283131
0.00283284
0.0027848
0.00269358
0.00256779
0.00241732
0.0022512
0.00207886
0.00191303
0.00175968
0.00161803
0.00148898
0.0013724
0.00126743
0.00117292
0.00108771
0.00101055
0.000940284
0.00087583
0.000816278
0.000760732
0.000708486
0.000659097
0.000612105
0.000567082
0.000523743
0.000480639
0.000444218
0.000601055
0.000617093
0.000648381
0.000691965
0.000748218
0.000817197
0.000897678
0.000987743
0.0010847
0.00118463
0.00128271
0.00137369
0.00145204
0.00151259
0.00155132
0.00156602
0.00155675
0.00152541
0.00147484
0.00140857
0.00133101
0.0012495
0.00116873
0.00108974
0.00101433
0.000943389
0.000877184
0.000815673
0.000758654
0.000705795
0.000656715
0.000611
0.0005683
0.000528206
0.000490396
0.000454698
0.000420924
0.000388853
0.000358325
0.000328813
0.000303302
0.000317755
0.000325244
0.000340015
0.000360605
0.000387507
0.000420894
0.000460299
0.000505022
0.000554138
0.000606237
0.000659486
0.000711793
0.000760763
0.000803855
0.000838668
0.000863283
0.000876408
0.000877617
0.000867352
0.000846438
0.000816343
0.0007805
0.000741654
0.000700949
0.000659934
0.000619575
0.000580439
0.000542867
0.000507053
0.000473067
0.000440898
0.000410474
0.000381735
0.000354548
0.000328804
0.000304482
0.00028154
0.000259858
0.000239382
0.00021991
0.000202766
0.000175889
0.000179581
0.000186988
0.000197317
0.000210966
0.000228076
0.000248425
0.000271708
0.00029756
0.000325417
0.000354517
0.000383979
0.000412747
0.000439605
0.000463304
0.000482675
0.000496766
0.000504904
0.000506775
0.000502435
0.00049225
0.000477612
0.000459877
0.000439813
0.00041842
0.000396398
0.000374238
0.000352296
0.000330829
0.000310015
0.000289964
0.000270729
0.000252362
0.000234846
0.000218166
0.000202353
0.000187431
0.000173324
0.000160017
0.000147459
0.000136203
0.000101991
0.000103897
0.000107784
0.000113218
0.000120488
0.000129684
0.000140676
0.000153308
0.000167409
0.000182727
0.000198915
0.000215577
0.000232229
0.00024829
0.00026313
0.000276117
0.000286672
0.000294306
0.00029867
0.000299555
0.00029695
0.000291405
0.00028356
0.000273844
0.000262838
0.00025098
0.000238607
0.000225998
0.000213371
0.000200891
0.000188678
0.000176813
0.000165376
0.000154389
0.000143867
0.000133853
0.000124389
0.000115424
0.000106959
9.89791e-05
9.17811e-05
6.12811e-05
6.22855e-05
6.439e-05
6.73575e-05
7.13852e-05
7.65258e-05
8.26977e-05
8.98102e-05
9.77751e-05
0.000106465
0.000115709
0.000125311
0.000135035
0.000144587
0.000153643
0.000161863
0.000168916
0.0001745
0.000178365
0.000180324
0.000180273
0.000178393
0.00017498
0.000170279
0.000164613
0.000158232
0.000151347
0.000144147
0.000136786
0.000129383
0.000122039
0.000114824
0.000107807
0.000101018
9.44802e-05
8.82285e-05
8.23071e-05
7.66801e-05
7.13575e-05
6.63143e-05
6.18184e-05
3.78862e-05
3.84239e-05
3.95956e-05
4.12693e-05
4.35763e-05
4.65458e-05
5.01234e-05
5.42526e-05
5.8882e-05
6.39416e-05
6.93381e-05
7.49685e-05
8.07085e-05
8.64043e-05
9.18827e-05
9.69595e-05
0.000101449
0.000105175
0.000107981
0.000109736
0.000110348
0.000109866
0.000108424
0.000106146
0.000103211
9.97619e-05
9.59261e-05
9.18191e-05
8.75429e-05
8.31788e-05
7.87947e-05
7.44436e-05
7.01772e-05
6.6021e-05
6.19949e-05
5.81255e-05
5.44493e-05
5.09406e-05
4.76146e-05
4.44275e-05
4.16679e-05
2.39699e-05
2.42596e-05
2.49262e-05
2.58957e-05
2.72542e-05
2.90172e-05
3.11476e-05
3.36086e-05
3.63682e-05
3.93849e-05
4.26049e-05
4.597e-05
4.9411e-05
5.28429e-05
5.61697e-05
5.92889e-05
6.20953e-05
6.44858e-05
6.63667e-05
6.76544e-05
6.82851e-05
6.82688e-05
6.76659e-05
6.65434e-05
6.49968e-05
6.31061e-05
6.09455e-05
5.85855e-05
5.60905e-05
5.35128e-05
5.0896e-05
4.8277e-05
4.56908e-05
4.31561e-05
4.06871e-05
3.83028e-05
3.60298e-05
3.38502e-05
3.17801e-05
2.97655e-05
2.80987e-05
1.54565e-05
1.56129e-05
1.59992e-05
1.65742e-05
1.73937e-05
1.84655e-05
1.97638e-05
2.12639e-05
2.29448e-05
2.47808e-05
2.67389e-05
2.87845e-05
3.0877e-05
3.29674e-05
3.50007e-05
3.69181e-05
3.86593e-05
4.01641e-05
4.13771e-05
4.22473e-05
4.27341e-05
4.28371e-05
4.25872e-05
4.20198e-05
4.11864e-05
4.01316e-05
3.88986e-05
3.75302e-05
3.60646e-05
3.45362e-05
3.29716e-05
3.13926e-05
2.98244e-05
2.8279e-05
2.67661e-05
2.52982e-05
2.38944e-05
2.25418e-05
2.12546e-05
1.9979e-05
1.89852e-05
1.01255e-05
1.02095e-05
1.04371e-05
1.07854e-05
1.12903e-05
1.19554e-05
1.27626e-05
1.36951e-05
1.47387e-05
1.58767e-05
1.70883e-05
1.8352e-05
1.96431e-05
2.09323e-05
2.2187e-05
2.33728e-05
2.44541e-05
2.53956e-05
2.61646e-05
2.67304e-05
2.70682e-05
2.71763e-05
2.70714e-05
2.6773e-05
2.63102e-05
2.57083e-05
2.49925e-05
2.4188e-05
2.33178e-05
2.24028e-05
2.146e-05
2.05025e-05
1.95464e-05
1.85998e-05
1.76692e-05
1.67623e-05
1.58923e-05
1.50503e-05
1.42481e-05
1.34379e-05
1.28506e-05
6.72158e-06
6.76622e-06
6.9023e-06
7.11742e-06
7.43462e-06
7.85501e-06
8.36593e-06
8.95574e-06
9.61471e-06
1.03316e-05
1.10931e-05
1.18852e-05
1.26925e-05
1.3497e-05
1.42789e-05
1.50174e-05
1.56914e-05
1.62798e-05
1.67633e-05
1.71233e-05
1.73453e-05
1.74282e-05
1.73821e-05
1.72184e-05
1.69536e-05
1.66022e-05
1.61791e-05
1.5699e-05
1.51761e-05
1.46224e-05
1.40497e-05
1.34656e-05
1.28789e-05
1.22962e-05
1.17211e-05
1.11586e-05
1.06172e-05
1.00912e-05
9.58936e-06
9.0728e-06
8.72763e-06
4.51191e-06
4.53517e-06
4.61778e-06
4.75321e-06
4.95606e-06
5.22629e-06
5.55494e-06
5.93389e-06
6.35634e-06
6.81467e-06
7.30002e-06
7.80328e-06
8.31456e-06
8.82248e-06
9.31479e-06
9.77876e-06
1.02016e-05
1.05706e-05
1.08741e-05
1.11012e-05
1.12432e-05
1.12999e-05
1.1278e-05
1.11841e-05
1.10279e-05
1.08179e-05
1.05629e-05
1.02718e-05
9.95324e-06
9.6145e-06
9.26279e-06
8.90286e-06
8.54001e-06
8.17836e-06
7.82026e-06
7.46881e-06
7.12948e-06
6.79864e-06
6.48267e-06
6.15169e-06
5.94872e-06
3.05718e-06
3.06896e-06
3.11993e-06
3.20684e-06
3.33881e-06
3.51526e-06
3.72984e-06
3.97684e-06
4.25145e-06
4.54844e-06
4.86185e-06
5.18561e-06
5.51326e-06
5.83751e-06
6.15064e-06
6.44472e-06
6.71189e-06
6.94442e-06
7.13534e-06
7.27803e-06
7.36741e-06
7.40387e-06
7.39199e-06
7.33571e-06
7.2408e-06
7.11244e-06
6.95595e-06
6.77681e-06
6.58021e-06
6.37059e-06
6.15229e-06
5.92842e-06
5.70206e-06
5.47573e-06
5.25104e-06
5.02992e-06
4.81578e-06
4.60635e-06
4.40616e-06
4.19322e-06
4.07361e-06
2.08789e-06
2.09361e-06
2.12567e-06
2.18254e-06
2.26985e-06
2.38679e-06
2.52887e-06
2.69203e-06
2.87286e-06
3.06772e-06
3.27255e-06
3.48328e-06
3.69562e-06
3.90484e-06
4.10601e-06
4.29414e-06
4.46433e-06
4.61184e-06
4.73246e-06
4.82221e-06
4.8781e-06
4.90074e-06
4.89339e-06
4.85845e-06
4.79944e-06
4.71956e-06
4.62206e-06
4.51029e-06
4.38739e-06
4.25615e-06
4.11899e-06
3.9783e-06
3.83584e-06
3.69276e-06
3.55051e-06
3.41018e-06
3.2739e-06
3.14029e-06
3.01244e-06
2.87471e-06
2.8036e-06
1.43535e-06
1.43799e-06
1.4586e-06
1.49659e-06
1.55531e-06
1.63394e-06
1.72928e-06
1.83843e-06
1.95896e-06
2.08831e-06
2.22372e-06
2.36239e-06
2.50147e-06
2.63786e-06
2.76836e-06
2.88982e-06
2.99915e-06
3.09343e-06
3.17009e-06
3.22674e-06
3.26161e-06
3.27537e-06
3.27036e-06
3.24805e-06
3.21062e-06
3.16008e-06
3.09845e-06
3.02779e-06
2.95006e-06
2.86698e-06
2.78005e-06
2.69074e-06
2.60018e-06
2.50906e-06
2.41828e-06
2.32852e-06
2.24113e-06
2.15526e-06
2.073e-06
1.98349e-06
1.94078e-06
9.92158e-07
9.93304e-07
1.00692e-06
1.03284e-06
1.07299e-06
1.12661e-06
1.19141e-06
1.26532e-06
1.34658e-06
1.43341e-06
1.52388e-06
1.6161e-06
1.70813e-06
1.79792e-06
1.88341e-06
1.96255e-06
2.03341e-06
2.09417e-06
2.14326e-06
2.17925e-06
2.20109e-06
2.20938e-06
2.20581e-06
2.19127e-06
2.16715e-06
2.13472e-06
2.09527e-06
2.05009e-06
2.0004e-06
1.94728e-06
1.89166e-06
1.83442e-06
1.77633e-06
1.71778e-06
1.65934e-06
1.60144e-06
1.54493e-06
1.4893e-06
1.43592e-06
1.37745e-06
1.35133e-06
6.88869e-07
6.89358e-07
6.98635e-07
7.16714e-07
7.44618e-07
7.81692e-07
8.26284e-07
8.76905e-07
9.32301e-07
9.91204e-07
1.05228e-06
1.11422e-06
1.17571e-06
1.23541e-06
1.29193e-06
1.34399e-06
1.39034e-06
1.42985e-06
1.46156e-06
1.48461e-06
1.49837e-06
1.50335e-06
1.50079e-06
1.49124e-06
1.47556e-06
1.45459e-06
1.42914e-06
1.40003e-06
1.36803e-06
1.3338e-06
1.29794e-06
1.26094e-06
1.22341e-06
1.18557e-06
1.14765e-06
1.11005e-06
1.07326e-06
1.037e-06
1.00215e-06
9.6381e-07
9.4763e-07
4.79984e-07
4.80237e-07
4.86777e-07
4.99668e-07
5.19378e-07
5.45351e-07
5.76403e-07
6.11459e-07
6.49617e-07
6.89979e-07
7.31614e-07
7.73619e-07
8.15105e-07
8.55162e-07
8.92896e-07
9.27459e-07
9.5807e-07
9.84012e-07
1.0047e-06
1.01961e-06
1.02838e-06
1.03141e-06
1.02959e-06
1.02326e-06
1.01298e-06
9.99291e-07
9.82717e-07
9.63779e-07
9.42963e-07
9.20695e-07
8.97357e-07
8.73271e-07
8.48812e-07
8.24133e-07
7.99375e-07
7.74792e-07
7.50669e-07
7.26866e-07
7.0394e-07
6.787e-07
6.68353e-07
3.35338e-07
3.35551e-07
3.40329e-07
3.49719e-07
3.63857e-07
3.82286e-07
4.0415e-07
4.2868e-07
4.55224e-07
4.83146e-07
5.11796e-07
5.40549e-07
5.68796e-07
5.95929e-07
6.21358e-07
6.44531e-07
6.64952e-07
6.8217e-07
6.9583e-07
7.05625e-07
7.11329e-07
7.13243e-07
7.12033e-07
7.07896e-07
7.01189e-07
6.92277e-07
6.81499e-07
6.69186e-07
6.55643e-07
6.41146e-07
6.25938e-07
6.10225e-07
5.94247e-07
5.7811e-07
5.61895e-07
5.45765e-07
5.299e-07
5.14224e-07
4.99095e-07
4.82415e-07
4.75834e-07
2.34729e-07
2.34979e-07
2.38591e-07
2.45568e-07
2.55856e-07
2.69082e-07
2.84635e-07
3.01961e-07
3.20594e-07
3.40085e-07
3.59977e-07
3.79837e-07
3.99248e-07
4.17799e-07
4.35101e-07
4.50795e-07
4.64562e-07
4.76121e-07
4.85251e-07
4.9177e-07
4.95535e-07
4.96772e-07
4.95964e-07
4.9323e-07
4.88802e-07
4.82925e-07
4.75825e-07
4.67717e-07
4.588e-07
4.49249e-07
4.3922e-07
4.28858e-07
4.18304e-07
4.07645e-07
3.96926e-07
3.86259e-07
3.75744e-07
3.65349e-07
3.55285e-07
3.44254e-07
3.39751e-07
1.645e-07
1.64803e-07
1.67615e-07
1.72888e-07
1.80468e-07
1.90057e-07
2.0122e-07
2.13559e-07
2.26746e-07
2.40463e-07
2.54392e-07
2.68231e-07
2.81693e-07
2.94499e-07
3.06391e-07
3.17135e-07
3.26529e-07
3.34398e-07
3.40612e-07
3.45064e-07
3.47673e-07
3.486e-07
3.48203e-07
3.46544e-07
3.43771e-07
3.40046e-07
3.35514e-07
3.30312e-07
3.24561e-07
3.18381e-07
3.11871e-07
3.05125e-07
2.98218e-07
2.9124e-07
2.8421e-07
2.77178e-07
2.70225e-07
2.63335e-07
2.56659e-07
2.49315e-07
2.46535e-07
1.15344e-07
1.15693e-07
1.17931e-07
1.21966e-07
1.27601e-07
1.34608e-07
1.42678e-07
1.51531e-07
1.60933e-07
1.70659e-07
1.80488e-07
1.90212e-07
1.99632e-07
2.0856e-07
2.16821e-07
2.2426e-07
2.30745e-07
2.36164e-07
2.40434e-07
2.43491e-07
2.45276e-07
2.45903e-07
2.4563e-07
2.445e-07
2.42615e-07
2.40092e-07
2.37035e-07
2.33538e-07
2.29689e-07
2.25563e-07
2.21228e-07
2.16738e-07
2.12142e-07
2.07496e-07
2.02823e-07
1.98146e-07
1.9351e-07
1.88925e-07
1.84456e-07
1.79648e-07
1.77466e-07
8.08726e-08
8.12495e-08
8.30597e-08
8.61709e-08
9.03804e-08
9.55186e-08
1.01376e-07
1.0776e-07
1.14506e-07
1.21455e-07
1.28448e-07
1.35337e-07
1.41987e-07
1.48272e-07
1.54075e-07
1.59297e-07
1.63856e-07
1.67686e-07
1.70742e-07
1.72995e-07
1.74415e-07
1.75084e-07
1.75184e-07
1.74727e-07
1.7377e-07
1.72381e-07
1.70622e-07
1.68551e-07
1.66221e-07
1.63677e-07
1.60961e-07
1.5811e-07
1.55157e-07
1.52145e-07
1.4909e-07
1.46002e-07
1.42925e-07
1.3986e-07
1.36884e-07
1.33586e-07
1.32529e-07
5.667e-08
5.70535e-08
5.85293e-08
6.09383e-08
6.40891e-08
6.78597e-08
7.21106e-08
7.67146e-08
8.15635e-08
8.65503e-08
9.15633e-08
9.64939e-08
1.01241e-07
1.05714e-07
1.09833e-07
1.1353e-07
1.16747e-07
1.19434e-07
1.21554e-07
1.2308e-07
1.23984e-07
1.24324e-07
1.24243e-07
1.23762e-07
1.22937e-07
1.21829e-07
1.20493e-07
1.18974e-07
1.17313e-07
1.15541e-07
1.13688e-07
1.11774e-07
1.09817e-07
1.07845e-07
1.0586e-07
1.03862e-07
1.01869e-07
9.98999e-08
9.79529e-08
9.59602e-08
9.4699e-08
3.96735e-08
4.00385e-08
4.12333e-08
4.30889e-08
4.54431e-08
4.82125e-08
5.13027e-08
5.46245e-08
5.8104e-08
6.16725e-08
6.52611e-08
6.88008e-08
7.22221e-08
7.54571e-08
7.84467e-08
8.11468e-08
8.35303e-08
8.55829e-08
8.73008e-08
8.86818e-08
8.9716e-08
9.04307e-08
9.09063e-08
9.11253e-08
9.10959e-08
9.08414e-08
9.03832e-08
8.97421e-08
8.89396e-08
8.79981e-08
8.69396e-08
8.57845e-08
8.45509e-08
8.32693e-08
8.19425e-08
8.05669e-08
7.91834e-08
7.77844e-08
7.64388e-08
7.48395e-08
7.4753e-08
2.77534e-08
2.80831e-08
2.90302e-08
3.04252e-08
3.21467e-08
3.41549e-08
3.63966e-08
3.881e-08
4.13346e-08
4.39106e-08
4.6483e-08
4.90074e-08
5.14469e-08
5.37648e-08
5.59189e-08
5.78604e-08
5.95393e-08
6.09122e-08
6.19512e-08
6.26487e-08
6.29936e-08
6.30336e-08
6.28628e-08
6.25138e-08
6.20277e-08
6.14435e-08
6.07925e-08
6.00978e-08
5.93768e-08
5.8642e-08
5.79026e-08
5.7165e-08
5.64314e-08
5.57094e-08
5.49956e-08
5.42836e-08
5.35739e-08
5.28838e-08
5.21646e-08
5.15712e-08
5.06183e-08
1.94113e-08
1.97058e-08
2.04495e-08
2.14705e-08
2.26777e-08
2.40637e-08
2.56159e-08
2.73143e-08
2.91313e-08
3.10249e-08
3.29399e-08
3.48187e-08
3.66149e-08
3.83032e-08
3.98821e-08
4.13673e-08
4.27792e-08
4.41317e-08
4.54264e-08
4.6649e-08
4.77799e-08
4.87948e-08
4.97005e-08
5.04526e-08
5.10318e-08
5.14356e-08
5.1667e-08
5.1732e-08
5.16415e-08
5.14104e-08
5.10562e-08
5.05945e-08
5.00462e-08
4.94219e-08
4.87495e-08
4.80254e-08
4.72724e-08
4.64858e-08
4.576e-08
4.47054e-08
4.52933e-08
1.3572e-08
1.38234e-08
1.44057e-08
1.51586e-08
1.60069e-08
1.69427e-08
1.79568e-08
1.9045e-08
2.0212e-08
2.14632e-08
2.27944e-08
2.41832e-08
2.5583e-08
2.69252e-08
2.813e-08
2.91246e-08
2.98596e-08
3.03181e-08
3.05133e-08
3.04862e-08
3.02583e-08
2.98914e-08
2.94561e-08
2.89965e-08
2.85407e-08
2.81091e-08
2.77155e-08
2.73691e-08
2.70741e-08
2.68312e-08
2.66384e-08
2.64928e-08
2.6388e-08
2.63197e-08
2.62881e-08
2.62861e-08
2.62859e-08
2.63193e-08
2.63004e-08
2.65524e-08
2.56627e-08
9.47979e-09
9.64994e-09
1.00543e-08
1.05788e-08
1.11864e-08
1.18757e-08
1.26238e-08
1.33979e-08
1.41698e-08
1.49241e-08
1.56646e-08
1.64163e-08
1.72201e-08
1.81226e-08
1.91644e-08
2.03707e-08
2.17445e-08
2.32645e-08
2.48887e-08
2.65528e-08
2.82132e-08
2.98021e-08
3.12722e-08
3.25579e-08
3.36318e-08
3.44878e-08
3.51289e-08
3.55646e-08
3.581e-08
3.58824e-08
3.58003e-08
3.55807e-08
3.52447e-08
3.4805e-08
3.4283e-08
3.36811e-08
3.30303e-08
3.23114e-08
3.16596e-08
3.05554e-08
3.14923e-08
6.64671e-09
6.72718e-09
6.9289e-09
7.17115e-09
7.46251e-09
7.84588e-09
8.34651e-09
8.97014e-09
9.69951e-09
1.04888e-08
1.12661e-08
1.19472e-08
1.24548e-08
1.2739e-08
1.27898e-08
1.26371e-08
1.23376e-08
1.19566e-08
1.15494e-08
1.11643e-08
1.079e-08
1.04319e-08
1.0086e-08
9.77087e-09
9.48926e-09
9.24258e-09
9.03652e-09
8.87976e-09
8.77876e-09
8.73571e-09
8.74993e-09
8.82071e-09
8.94607e-09
9.12499e-09
9.3579e-09
9.64414e-09
9.96537e-09
1.03454e-08
1.07109e-08
1.13588e-08
1.09928e-08
4.75329e-09
4.83261e-09
4.9588e-09
5.0349e-09
5.05728e-09
5.06205e-09
5.08112e-09
5.14659e-09
5.29696e-09
5.57886e-09
6.04608e-09
6.75444e-09
7.75245e-09
9.0696e-09
1.07056e-08
1.26236e-08
1.47514e-08
1.69884e-08
1.9226e-08
2.13388e-08
2.32961e-08
2.50613e-08
2.65648e-08
2.77836e-08
2.87381e-08
2.94606e-08
2.9974e-08
3.03265e-08
3.0525e-08
3.06144e-08
3.06179e-08
3.05381e-08
3.03792e-08
3.01407e-08
2.98327e-08
2.94558e-08
2.90347e-08
2.8541e-08
2.80696e-08
2.73626e-08
2.75247e-08
3.50089e-09
3.62278e-09
3.81429e-09
3.98057e-09
4.07286e-09
4.07422e-09
3.9797e-09
3.8043e-09
3.58376e-09
3.3657e-09
3.19862e-09
3.12242e-09
3.16171e-09
3.32224e-09
3.59075e-09
3.93762e-09
4.32262e-09
4.70293e-09
5.04181e-09
5.31526e-09
5.50093e-09
5.59105e-09
5.54562e-09
5.4106e-09
5.22099e-09
4.99807e-09
4.76997e-09
4.58397e-09
4.48242e-09
4.45238e-09
4.45677e-09
4.48002e-09
4.51928e-09
4.57165e-09
4.6346e-09
4.70367e-09
4.78324e-09
4.84421e-09
4.99017e-09
4.78229e-09
5.99488e-09
2.59319e-09
2.57257e-09
2.75086e-09
3.35342e-09
4.60042e-09
6.61363e-09
9.36382e-09
1.26909e-08
1.63537e-08
2.00801e-08
2.36076e-08
2.67133e-08
2.92359e-08
3.10816e-08
3.22241e-08
3.26959e-08
3.25745e-08
3.19632e-08
3.0976e-08
2.97109e-08
2.82797e-08
2.70276e-08
2.57511e-08
2.45334e-08
2.33988e-08
2.23414e-08
2.13875e-08
2.03935e-08
1.93374e-08
1.83087e-08
1.73307e-08
1.63993e-08
1.54953e-08
1.45946e-08
1.36956e-08
1.27896e-08
1.18608e-08
1.09043e-08
9.8587e-09
9.19688e-09
7.0103e-09
5668.31
3694.22
2194.43
1461.97
1051.54
779.718
581.786
429.798
310.166
215.533
141.935
86.4784
47.1547
21.892
8.02878
2.0634
0.283296
0.0112574
2.12242e-07
0.000659856
1.84783e-07
1.1774e-07
2.07624e-06
6.28943e-06
8.37378e-06
7.13081e-06
5.08011e-06
3.9532e-06
3.23226e-06
2.70751e-06
2.25916e-06
1.86303e-06
1.5217e-06
1.23087e-06
9.85089e-07
7.82156e-07
6.1685e-07
4.86767e-07
3.8737e-07
3.12007e-07
2.54745e-07
2.11161e-07
1.77435e-07
1.51153e-07
1.302e-07
1.29072e-07
1.21983e-07
1.01211e-07
8.28995e-08
6.94574e-08
5.88355e-08
5.08322e-08
4.37779e-08
3.76538e-08
3.24878e-08
2.75268e-08
2.31153e-08
2.13928e-08
1.63015e-08
1.318e-08
1.05845e-08
8.96298e-09
7.91628e-09
6.40012e-09
5.12106e-09
4.24563e-09
3.47796e-09
2.8603e-09
2.30981e-09
1.83501e-09
1.74684e-09
1.25688e-09
1.23202e-09
5.99574e-10
920.779
2017.1
1816.08
1404.02
1083.19
853.946
683.502
548.025
435.132
338.866
256.45
186.32
127.815
80.9071
45.7297
22.0014
8.31654
2.20941
0.326296
0.0173629
1.92755e-06
0.000533972
9.23523e-06
1.093e-10
7.33675e-07
3.33125e-06
5.31971e-06
5.20066e-06
3.9092e-06
2.93891e-06
2.30477e-06
1.86703e-06
1.53572e-06
1.26036e-06
1.01968e-06
8.12534e-07
6.38903e-07
4.99744e-07
3.93179e-07
3.12713e-07
2.52062e-07
2.06291e-07
1.71294e-07
1.44873e-07
1.21345e-07
1.37825e-07
1.29921e-07
1.17339e-07
9.998e-08
8.44313e-08
7.1723e-08
6.26975e-08
5.51719e-08
4.82204e-08
4.22498e-08
3.60835e-08
3.04812e-08
2.41817e-08
1.65473e-08
1.30042e-08
1.03437e-08
8.58915e-09
7.64441e-09
6.38619e-09
5.08603e-09
4.18627e-09
3.44311e-09
2.83073e-09
2.25822e-09
1.73086e-09
1.63118e-09
1.20129e-09
1.18186e-09
5.87508e-10
149.349
147.533
385.471
518.733
544.514
521.602
483.33
439.692
393.036
344.309
294.478
244.522
195.611
149.167
106.862
70.4525
41.3703
20.7125
8.23339
2.33886
0.399097
0.0287423
9.05925e-05
2.15817e-07
2.4933e-06
2.27861e-07
3.89927e-07
1.13207e-06
2.50936e-06
3.2845e-06
2.91856e-06
2.22599e-06
1.67302e-06
1.299e-06
1.03217e-06
8.24326e-07
6.54132e-07
5.14646e-07
4.04239e-07
3.18362e-07
2.52392e-07
2.02407e-07
1.64858e-07
1.37751e-07
1.14742e-07
1.05162e-07
1.05805e-07
1.05754e-07
9.58928e-08
8.21259e-08
6.89633e-08
5.9508e-08
5.26617e-08
4.61384e-08
4.0753e-08
3.5185e-08
3.04843e-08
2.13404e-08
1.65054e-08
1.30161e-08
1.02684e-08
8.23943e-09
7.19513e-09
6.2124e-09
4.9658e-09
4.05659e-09
3.35878e-09
2.77887e-09
2.22401e-09
1.67467e-09
1.50052e-09
1.12751e-09
1.12005e-09
5.76606e-10
582.932
309.946
101.928
38.3958
54.0144
92.0113
130.236
162.156
185.581
199.612
204.137
199.54
186.755
167.199
142.622
115.066
86.6349
59.8312
36.8523
19.409
8.24166
2.58791
0.519462
0.0534354
0.000997255
0.000168535
0.000180392
4.87417e-12
4.57512e-07
7.27036e-07
1.2084e-06
1.78034e-06
1.94064e-06
1.65468e-06
1.23976e-06
9.15673e-07
6.8937e-07
5.28878e-07
4.11603e-07
3.23339e-07
2.55283e-07
2.02393e-07
1.61885e-07
1.32392e-07
1.11064e-07
8.39965e-08
7.54022e-08
7.63841e-08
7.39105e-08
6.55975e-08
5.45877e-08
4.57912e-08
3.9771e-08
3.43407e-08
3.01688e-08
2.60919e-08
2.26971e-08
2.004e-08
1.64936e-08
1.32284e-08
1.04295e-08
8.12914e-09
6.8869e-09
5.98366e-09
4.82144e-09
3.8936e-09
3.22576e-09
2.69712e-09
2.19104e-09
1.64988e-09
1.41642e-09
1.07211e-09
1.06925e-09
5.65011e-10
743.968
663.972
487.205
304.357
160.835
70.5888
24.205
8.48687
12.6098
28.2068
49.0943
70.485
88.8178
101.703
107.793
106.696
98.7358
85.3419
68.4032
50.0469
32.6569
18.3603
8.46422
2.97973
0.716245
0.0982557
0.00444059
1.54082e-08
0.000277106
9.16747e-06
1.19514e-07
8.56455e-09
3.82713e-07
7.01356e-07
9.7304e-07
1.05245e-06
8.85492e-07
6.5651e-07
4.73161e-07
3.47342e-07
2.60358e-07
1.99457e-07
1.56896e-07
1.26926e-07
1.0776e-07
8.17005e-08
6.53049e-08
6.09461e-08
6.05928e-08
5.76928e-08
5.03637e-08
4.25466e-08
3.66735e-08
3.13831e-08
2.71873e-08
2.32907e-08
1.98869e-08
1.82476e-08
1.59015e-08
1.33131e-08
1.06984e-08
8.26492e-09
6.76946e-09
5.8103e-09
4.70657e-09
3.7492e-09
3.07626e-09
2.57924e-09
2.1299e-09
1.62257e-09
1.3627e-09
1.03855e-09
1.03387e-09
5.60868e-10
762.081
727.499
653.513
561.514
453.967
342.177
239.362
152.719
86.4008
40.836
14.0905
3.02005
3.89306
12.8306
26.1351
40.338
52.3857
60.2079
62.7116
59.6784
51.8667
40.837
28.6527
17.441
8.85617
3.542
1.02584
0.189422
0.0169803
0.000137964
5.426e-07
3.85935e-06
8.44967e-09
1.91093e-10
1.2638e-07
3.09175e-07
4.44989e-07
5.37429e-07
5.59357e-07
4.63546e-07
3.3431e-07
2.34227e-07
1.67222e-07
1.24054e-07
1.00242e-07
7.9163e-08
6.16206e-08
5.20682e-08
4.93386e-08
4.89404e-08
4.59314e-08
4.06053e-08
3.53878e-08
3.02316e-08
2.59772e-08
2.2111e-08
1.85338e-08
1.65414e-08
1.4745e-08
1.29627e-08
1.08674e-08
8.53116e-09
6.83375e-09
5.7299e-09
4.63561e-09
3.65122e-09
2.95219e-09
2.45835e-09
2.04918e-09
1.58065e-09
1.31471e-09
1.01341e-09
1.0054e-09
5.65818e-10
568.695
514.888
467.773
436.628
409.769
381.405
346.966
303.735
252.604
197.411
143.052
94.135
54.3658
25.705
8.3744
1.23389
2.18091
8.58271
17.741
26.9822
34.0244
37.3478
36.4078
31.652
24.3736
16.3309
9.25489
4.24707
1.48869
0.357839
0.05088
0.00250855
1.32619e-06
0.000178964
7.19404e-07
2.72025e-08
7.23097e-09
7.79412e-08
1.76763e-07
2.08763e-07
2.57636e-07
2.69387e-07
2.22508e-07
1.62572e-07
1.18369e-07
8.66964e-08
6.27502e-08
4.65958e-08
3.89279e-08
3.77426e-08
3.81491e-08
3.70556e-08
3.42573e-08
2.9808e-08
2.54258e-08
2.14173e-08
1.77627e-08
1.5319e-08
1.3494e-08
1.22123e-08
1.07738e-08
8.79735e-09
7.04457e-09
5.7606e-09
4.60467e-09
3.58738e-09
2.86304e-09
2.36226e-09
1.97524e-09
1.53618e-09
1.26794e-09
9.8799e-10
9.75325e-10
5.75131e-10
159.671
139.176
123.568
117.524
117.708
123.274
133.228
145.515
157.106
164.69
165.247
156.799
139.24
114.491
85.9669
57.6394
33.1295
15.0317
4.25593
0.386517
1.98726
7.05182
13.3906
18.9255
22.0901
22.1495
19.3118
14.5785
9.37503
4.98875
2.09907
0.653454
0.133539
0.0150643
0.000349686
4.79665e-05
0.000121624
1.81797e-06
4.26876e-10
1.07909e-08
5.30625e-08
7.22552e-08
6.96376e-08
9.10691e-08
1.12616e-07
1.0767e-07
8.54772e-08
6.06168e-08
4.1713e-08
3.17958e-08
2.85054e-08
2.86074e-08
2.93146e-08
2.79291e-08
2.49434e-08
2.12161e-08
1.75215e-08
1.47195e-08
1.25636e-08
1.1314e-08
1.03537e-08
8.90555e-09
7.33038e-09
5.9344e-09
4.65297e-09
3.55706e-09
2.79589e-09
2.28983e-09
1.9211e-09
1.50582e-09
1.23211e-09
9.64986e-10
9.41069e-10
5.82312e-10
7.08512
5.80438
4.76226
4.34641
4.31339
4.65807
5.63497
7.54227
10.7883
15.8865
23.2829
33.0217
44.3876
55.7438
64.7533
69.0572
67.0467
58.8171
46.0389
31.3369
17.6924
7.39413
1.57907
0.184616
2.17941
6.0146
10.0015
12.6941
13.2695
11.725
8.7737
5.48857
2.79046
1.10651
0.318199
0.0590301
0.00552308
4.76741e-05
6.57944e-05
7.39814e-05
1.73198e-07
3.49379e-10
9.48047e-09
3.61747e-08
2.66878e-08
1.7012e-08
2.59262e-08
4.26052e-08
4.65083e-08
3.99413e-08
3.22163e-08
2.73496e-08
2.52753e-08
2.37754e-08
2.19395e-08
1.93845e-08
1.65319e-08
1.41373e-08
1.20234e-08
1.06819e-08
9.87818e-09
8.84857e-09
7.59584e-09
6.23562e-09
4.8319e-09
3.59836e-09
2.75484e-09
2.22918e-09
1.87925e-09
1.4934e-09
1.21632e-09
9.53339e-10
9.06905e-10
5.84247e-10
0.000219459
5.84716e-05
0.000282608
0.00028447
0.000197615
0.000145077
0.000234472
0.00146108
0.00793596
0.026952
0.0822545
0.240471
0.651003
1.59648
3.48443
6.75764
11.6
17.6421
23.8108
28.5055
30.203
28.1467
22.7522
15.4889
8.34212
2.99978