/*--------------------------------*- C++ -*----------------------------------*\
| =========                 |                                                 |
| \\      /  F ield         | OpenFOAM: The Open Source CFD Toolbox           |
|  \\    /   O peration     | Version:  2312                                  |
|   \\  /    A nd           | Website:  www.openfoam.com                      |
|    \\/     M anipulation  |                                                 |
\*---------------------------------------------------------------------------*/
FoamFile
{
    version     2.0;
    format      ascii;
    arch        "LSB;label=32;scalar=64";
    class       volScalarField;
    location    "150";
    object      turbulenceProperties:k;
}
// * * * * * * * * * * * * * * * * * * * * * * * * * * * * * * * * * * * * * //

dimensions      [0 2 -2 0 0 0 0];

internalField   nonuniform List<scalar> 
11040
(
1.38727
2.82774
4.30674
5.54435
7.18931
12.0223
9.6089
8.60648
8.62101
9.70177
12.4756
15.9177
19.5765
23.0709
26.0911
28.45
30.0853
31.0283
31.3536
31.1553
30.4254
29.2499
27.9514
26.6882
25.4412
24.1361
22.7743
21.365
19.907
18.3958
16.8267
15.1981
13.514
11.7798
10.0063
8.22525
6.39874
4.19954
2.66826
1.89711
1.0284
0.190821
0.236627
0.39393
0.992705
2.55151
7.0376
13.3325
20.4182
30.1715
40.1779
43.0951
40.5751
35.9172
31.1287
26.955
23.4867
20.6049
18.1965
16.1999
14.5384
13.1434
12.0594
11.1511
10.3153
9.58796
8.97364
8.46209
8.03288
7.66835
7.35406
7.0803
6.83977
6.62671
6.43389
6.25473
6.07483
5.87281
5.53584
5.18925
4.70071
7.31841
0.109751
0.0834101
0.0715324
0.0529743
0.0432678
0.36816
1.39328
3.35401
6.29429
9.94057
13.96
18.0857
22.0118
25.3009
27.5213
28.3986
27.9305
26.4096
24.2705
21.9531
19.7512
17.8588
16.36
15.0976
14.0423
13.146
12.3691
11.6853
11.075
10.5259
10.029
9.58002
9.17668
8.81512
8.49502
8.21281
7.97243
7.73238
7.55487
6.98563
7.77315
0.0774854
0.0708616
0.0611464
0.0533237
0.0452181
0.0278891
0.0157655
0.0247077
0.109163
0.264854
0.474236
0.740919
1.1543
1.87448
3.07625
4.86591
7.20228
9.85743
12.4694
14.6531
16.1486
16.8559
16.9039
16.4965
15.8623
15.1652
14.4715
13.8159
13.2144
12.6722
12.1876
11.756
11.3716
11.0261
10.715
10.4319
10.1838
9.9332
9.75914
9.23007
9.59469
0.0537078
0.0518501
0.047777
0.041478
0.0362289
0.0312958
0.0227438
0.0123718
0.00468665
0.00117304
0.000213811
9.1802e-05
0.000150685
0.000260657
0.000445792
0.00342125
0.0345674
0.149702
0.445257
1.05819
2.13041
3.61419
5.26026
6.85549
8.26537
9.43422
10.3414
11.0008
11.4475
11.724
11.8724
11.9298
11.9262
11.8832
11.8176
11.7365
11.654
11.5426
11.4754
11.1645
11.3349
0.0365718
0.0367963
0.0355923
0.0327148
0.0293911
0.0268871
0.024939
0.0222469
0.0183447
0.0140818
0.0105286
0.00800714
0.00628322
0.00485108
0.00350793
0.00106263
0.000842013
1.04532e-05
0.0396716
0.000163178
0.00668525
0.015496
0.0696135
0.224586
0.513964
0.960896
1.57123
2.33192
3.21709
4.19158
5.21724
6.25667
7.27573
8.24862
9.15242
9.96318
10.6686
11.2447
11.7322
11.9734
12.4462
0.0253921
0.0260488
0.0265747
0.026145
0.0247314
0.0228039
0.0209259
0.0192559
0.0175833
0.0157174
0.0136873
0.0116516
0.00981002
0.008321
0.00724666
0.00644497
0.00575686
0.00481821
0.00353648
0.00154864
2.43619e-05
0.00570569
4.60908e-07
0.0102034
0.0101156
0.00878607
0.0147052
0.0239088
0.059351
0.147868
0.317353
0.59948
1.02811
1.63716
2.45207
3.47886
4.69689
6.06655
7.53439
8.89142
10.6014
0.0178137
0.018391
0.0191839
0.0195212
0.0192164
0.0184348
0.0173968
0.0162186
0.0149028
0.013436
0.0118497
0.0102195
0.00866637
0.00732784
0.00627672
0.00551301
0.0049528
0.00454948
0.00418028
0.00382859
0.00335085
0.00280396
0.00207854
0.00149367
0.000530343
0.000920574
0.00212392
0.00560841
0.000146911
0.0075834
0.0052388
0.0040944
0.011546
0.0285274
0.0773895
0.194981
0.433329
0.863381
1.57068
2.52073
4.22296
0.0126345
0.0130486
0.0137316
0.0143149
0.0145782
0.0144842
0.0140916
0.0134666
0.0126381
0.0116206
0.010453
0.00920283
0.0079652
0.00684337
0.00590458
0.00516425
0.00459457
0.00415281
0.00379983
0.00351291
0.00329381
0.0030576
0.00279297
0.00245973
0.00221551
0.00192253
0.00155327
0.00120726
0.000798384
0.000433249
1.01231e-05
0.000330996
0.00107183
0.00336932
0.000168466
0.00151266
0.00449053
0.0132988
0.0460429
0.12363
0.425776
0.00901796
0.00929413
0.0097846
0.0103036
0.010704
0.0109087
0.0109009
0.0106958
0.0103052
0.00973695
0.00901295
0.00817482
0.00728628
0.00642367
0.0056492
0.00499486
0.00446134
0.00402973
0.00367741
0.00338342
0.00313805
0.00292941
0.0027495
0.00258789
0.00245572
0.00235192
0.00224842
0.00211043
0.00195038
0.00176535
0.00163398
0.00138921
0.00104671
0.000651114
0.000269874
0.000161815
0.00025445
0.000750408
0.0027073
0.00626856
0.00211394
0.00646452
0.00664406
0.00697249
0.0073604
0.00772932
0.00801991
0.0081932
0.00823019
0.00812325
0.00787055
0.00748392
0.0069835
0.0064049
0.00579861
0.00521329
0.00468395
0.00422631
0.00383913
0.00351243
0.00323393
0.00299391
0.00278847
0.00261075
0.00245536
0.00232216
0.00221256
0.00212498
0.00205509
0.00200125
0.0019559
0.00192671
0.0018932
0.00183342
0.00171554
0.00150225
0.00119528
0.000903992
0.000572013
0.000120892
2.5997e-05
7.87193e-05
0.00464447
0.00475936
0.00497225
0.00523905
0.00552135
0.0057848
0.00599814
0.00613757
0.00618608
0.00613381
0.0059796
0.00573098
0.00540407
0.00502694
0.00463115
0.00424476
0.00388685
0.00356612
0.00328323
0.00303426
0.00281551
0.00262668
0.00246367
0.0023201
0.00219461
0.00208687
0.00199558
0.00191847
0.0018537
0.00179909
0.00175439
0.00171866
0.00169089
0.00166718
0.00164516
0.0016216
0.00157608
0.00150682
0.00131225
0.0010498
0.000612835
0.00334003
0.00341296
0.00354921
0.00372609
0.00392544
0.00412997
0.00432067
0.00447934
0.00459015
0.00464007
0.0046225
0.00453588
0.00438553
0.00418394
0.00394809
0.00369616
0.00344397
0.00320256
0.00297789
0.00277164
0.00258466
0.00242025
0.00227722
0.00215062
0.00203874
0.00194075
0.00185547
0.00178127
0.00171641
0.00165939
0.00160869
0.00156325
0.00152234
0.00148554
0.00145235
0.00142321
0.00139742
0.00137799
0.00136148
0.0013371
0.00126098
0.00240172
0.00244771
0.00253448
0.00264964
0.00278455
0.00293098
0.00307867
0.00321654
0.00333356
0.00341937
0.00346627
0.00346961
0.00342807
0.00334546
0.00322894
0.00308797
0.00293252
0.00277134
0.00261103
0.00245552
0.00230822
0.00217452
0.00205559
0.00194854
0.00185244
0.00176667
0.00169041
0.00162258
0.00156198
0.00150746
0.00145793
0.00141237
0.00136989
0.00132965
0.00129094
0.00125328
0.00121626
0.00118013
0.0011465
0.00111244
0.00109211
0.00172533
0.00175435
0.00180967
0.00188404
0.00197344
0.00207404
0.00218054
0.00228684
0.0023864
0.00247232
0.00253863
0.00258054
0.00259486
0.00258084
0.0025404
0.00247732
0.00239643
0.00230296
0.0022018
0.00209669
0.00199142
0.00189172
0.00179992
0.00171489
0.00163671
0.00156524
0.00150012
0.00144075
0.00138649
0.00133662
0.00129041
0.00124721
0.00120638
0.00116728
0.00112937
0.00109224
0.00105544
0.00101849
0.000981332
0.000941591
0.000909116
0.00123784
0.00125632
0.00129166
0.00133938
0.00139783
0.00146528
0.00153892
0.00161547
0.00169137
0.00176254
0.00182507
0.00187548
0.00191081
0.00192909
0.00192961
0.00191318
0.00188158
0.00183712
0.00178248
0.00172015
0.00165299
0.0015857
0.00152081
0.00145832
0.00139896
0.00134308
0.00129069
0.00124164
0.00119568
0.0011525
0.0011117
0.00107293
0.00103581
0.000999946
0.000964998
0.000930755
0.000896963
0.000863345
0.000829698
0.000794823
0.000764112
0.000888819
0.000900601
0.000923151
0.000953673
0.00099168
0.00103638
0.00108622
0.00113941
0.00119402
0.00124781
0.00129844
0.0013437
0.00138149
0.00140999
0.00142793
0.00143468
0.00143043
0.00141596
0.00139229
0.00136065
0.00132266
0.00128152
0.00123941
0.00119679
0.00115464
0.00111353
0.00107375
0.00103542
0.000998572
0.000963157
0.000929066
0.000896146
0.000864266
0.000833221
0.000802846
0.000773072
0.000743808
0.000714911
0.000686275
0.000657407
0.00063139
0.000646252
0.000653826
0.000668507
0.000688451
0.000713669
0.000743778
0.000777817
0.000814727
0.000853426
0.000892644
0.000931021
0.000967239
0.000999957
0.00102789
0.00104991
0.00106521
0.00107327
0.00107401
0.00106771
0.00105476
0.00103584
0.00101285
0.00098732
0.000959844
0.000931339
0.000902411
0.000873445
0.000844704
0.000816365
0.000788531
0.000761249
0.000734515
0.000708335
0.000682645
0.000657395
0.000632613
0.000608314
0.000584421
0.000560923
0.000537626
0.000516244
0.000480811
0.000485833
0.000495751
0.000509259
0.000526578
0.000547516
0.000571419
0.000597596
0.00062538
0.000653998
0.000682614
0.000710412
0.000736543
0.00076013
0.00078035
0.000796496
0.000808039
0.000814631
0.000816139
0.000812637
0.000804359
0.000792309
0.000777459
0.00076031
0.000741589
0.000721809
0.000701344
0.000680473
0.000659415
0.000638335
0.000617347
0.000596519
0.000575929
0.000555583
0.000535489
0.000515718
0.000496338
0.000477295
0.000458607
0.000440243
0.000423107
0.000366131
0.000369537
0.000376386
0.000385757
0.000397949
0.000412856
0.000429998
0.000448888
0.000469078
0.000490068
0.000511316
0.000532301
0.000552477
0.000571263
0.000588086
0.000602424
0.00061383
0.00062195
0.000626544
0.000627472
0.000624738
0.000618877
0.00061049
0.000599941
0.000587761
0.000574349
0.000560013
0.000545015
0.000529572
0.00051385
0.000497985
0.000482074
0.000466222
0.000450468
0.000434848
0.00041944
0.00040434
0.000389498
0.000374942
0.000360685
0.000347323
0.000283804
0.000286121
0.000290914
0.000297542
0.000306309
0.000317146
0.000329687
0.000343572
0.000358484
0.000374076
0.000389977
0.000405836
0.000421287
0.000435934
0.000449379
0.000461243
0.000471185
0.000478909
0.000484184
0.000486836
0.000486767
0.000484222
0.000479568
0.000473083
0.000465145
0.00045604
0.000446009
0.000435271
0.00042401
0.000412377
0.000400503
0.000388484
0.000376427
0.000364382
0.000352392
0.000340534
0.000328908
0.000317466
0.00030625
0.00029523
0.000285046
0.000223149
0.000224727
0.000228128
0.0002329
0.000239321
0.000247341
0.00025667
0.000267033
0.000278193
0.000289899
0.000301885
0.000313902
0.000325698
0.000336995
0.000347514
0.000356985
0.000365157
0.000371802
0.000376728
0.000379778
0.000380835
0.000380004
0.000377501
0.000373516
0.000368314
0.000362108
0.000355079
0.000347394
0.000339208
0.000330645
0.000321814
0.000312802
0.000303707
0.000294576
0.000285453
0.000276401
0.000267518
0.000258755
0.000250165
0.000241647
0.000234022
0.000177496
0.000178565
0.000181002
0.000184488
0.000189265
0.000195291
0.000202333
0.000210174
0.000218633
0.00022752
0.000236638
0.000245806
0.000254839
0.000263541
0.00027171
0.000279153
0.000285683
0.00029113
0.000295346
0.000298197
0.000299584
0.000299548
0.000298223
0.000295739
0.000292282
0.000287999
0.000283026
0.000277492
0.000271519
0.000265207
0.000258641
0.000251899
0.000245059
0.000238165
0.000231251
0.000224373
0.000217614
0.000210929
0.000204378
0.000197794
0.000192176
0.000142531
0.000143251
0.000145012
0.000147595
0.0001512
0.000155788
0.000161172
0.000167177
0.000173659
0.000180473
0.000187468
0.000194506
0.000201452
0.00020816
0.000214483
0.00022028
0.000225415
0.00022976
0.000233204
0.000235643
0.000236997
0.000237282
0.000236589
0.000235008
0.000232666
0.000229667
0.000226112
0.000222099
0.000217719
0.000213056
0.000208174
0.000203128
0.000197989
0.000192792
0.000187564
0.000182348
0.000177216
0.000172127
0.000167141
0.000162048
0.000157966
0.000115362
0.00011584
0.000117124
0.000119062
0.000121817
0.000125353
0.000129516
0.000134164
0.000139182
0.000144456
0.000149866
0.000155309
0.000160679
0.000165868
0.000170767
0.000175271
0.000179279
0.000182698
0.000185444
0.000187438
0.000188619
0.000188995
0.00018863
0.000187588
0.000185959
0.00018382
0.000181243
0.000178302
0.000175065
0.000171596
0.000167946
0.000164157
0.000160284
0.000156355
0.000152393
0.000148431
0.000144527
0.000140647
0.000136847
0.000132899
0.000129962
9.39917e-05
9.43034e-05
9.52469e-05
9.67197e-05
9.88514e-05
0.000101608
0.00010486
0.000108494
0.000112414
0.00011653
0.000120748
0.000124985
0.00012916
0.00013319
0.000136994
0.000140492
0.00014361
0.000146278
0.000148434
0.00015002
0.000150989
0.00015135
0.00015115
0.000150436
0.000149275
0.00014772
0.000145825
0.000143645
0.000141233
0.000138632
0.00013589
0.000133036
0.000130106
0.000127128
0.00012412
0.000121105
0.00011813
0.000115167
0.000112267
0.000109201
0.000107104
7.70077e-05
7.72059e-05
7.79058e-05
7.90399e-05
8.07089e-05
8.288e-05
8.54463e-05
8.83127e-05
9.14023e-05
9.46403e-05
9.79525e-05
0.000101273
0.000104538
0.000107684
0.000110647
0.00011337
0.000115795
0.00011787
0.000119551
0.000120793
0.000121562
0.000121869
0.000121751
0.000121243
0.000120393
0.000119241
0.000117827
0.000116193
0.000114377
0.000112414
0.000110338
0.000108173
0.000105946
0.000103679
0.000101383
9.90791e-05
9.68022e-05
9.45295e-05
9.23067e-05
8.99195e-05
8.84236e-05
6.3389e-05
6.3511e-05
6.40362e-05
6.4922e-05
6.62444e-05
6.79723e-05
7.00162e-05
7.22973e-05
7.47518e-05
7.73187e-05
7.99382e-05
8.25569e-05
8.51252e-05
8.75927e-05
8.99113e-05
9.20357e-05
9.39241e-05
9.55372e-05
9.68416e-05
9.78051e-05
9.84039e-05
9.86471e-05
9.8568e-05
9.81921e-05
9.75548e-05
9.66863e-05
9.56167e-05
9.43775e-05
9.29985e-05
9.15052e-05
8.99237e-05
8.82725e-05
8.65709e-05
8.48354e-05
8.30766e-05
8.13086e-05
7.95591e-05
7.78099e-05
7.61003e-05
7.42386e-05
7.31722e-05
5.23849e-05
5.24567e-05
5.28567e-05
5.35592e-05
5.46199e-05
5.60092e-05
5.76522e-05
5.9483e-05
6.14483e-05
6.34981e-05
6.55838e-05
6.76625e-05
6.96943e-05
7.164e-05
7.34622e-05
7.51263e-05
7.66006e-05
7.78559e-05
7.88675e-05
7.96119e-05
8.00719e-05
8.02575e-05
8.01973e-05
7.99106e-05
7.94238e-05
7.87601e-05
7.79423e-05
7.69942e-05
7.59379e-05
7.47936e-05
7.35785e-05
7.23111e-05
7.10045e-05
6.96677e-05
6.83127e-05
6.69492e-05
6.55978e-05
6.42452e-05
6.29239e-05
6.14686e-05
6.07036e-05
4.34341e-05
4.3474e-05
4.37845e-05
4.43511e-05
4.52127e-05
4.63415e-05
4.76744e-05
4.9156e-05
5.07417e-05
5.23903e-05
5.40621e-05
5.57223e-05
5.73391e-05
5.88815e-05
6.03205e-05
6.16295e-05
6.27846e-05
6.37638e-05
6.4549e-05
6.51233e-05
6.54743e-05
6.56123e-05
6.55621e-05
6.53381e-05
6.49606e-05
6.44473e-05
6.38157e-05
6.30839e-05
6.22688e-05
6.13858e-05
6.0448e-05
5.94692e-05
5.84598e-05
5.74264e-05
5.6378e-05
5.53218e-05
5.42737e-05
5.32238e-05
5.21982e-05
5.10589e-05
5.05062e-05
3.61112e-05
3.61321e-05
3.63789e-05
3.68441e-05
3.75534e-05
3.84803e-05
3.95715e-05
4.07804e-05
4.20696e-05
4.34048e-05
4.47537e-05
4.60879e-05
4.7382e-05
4.86115e-05
4.97537e-05
5.07883e-05
5.16971e-05
5.24638e-05
5.30752e-05
5.3519e-05
5.37866e-05
5.38877e-05
5.38441e-05
5.36665e-05
5.33702e-05
5.29694e-05
5.24777e-05
5.19089e-05
5.1276e-05
5.05906e-05
4.98629e-05
4.91027e-05
4.83189e-05
4.7516e-05
4.67007e-05
4.58788e-05
4.50619e-05
4.42432e-05
4.34432e-05
4.25495e-05
4.2144e-05
3.00898e-05
3.01005e-05
3.03023e-05
3.06919e-05
3.12837e-05
3.2053e-05
3.29546e-05
3.39491e-05
3.5005e-05
3.60939e-05
3.71893e-05
3.82682e-05
3.93101e-05
4.02956e-05
4.12072e-05
4.20292e-05
4.27478e-05
4.3351e-05
4.3829e-05
4.41733e-05
4.43776e-05
4.44513e-05
4.44134e-05
4.42719e-05
4.40385e-05
4.37245e-05
4.33403e-05
4.28967e-05
4.24037e-05
4.18698e-05
4.13031e-05
4.07101e-05
4.00997e-05
3.94747e-05
3.88383e-05
3.81969e-05
3.75586e-05
3.69186e-05
3.62929e-05
3.55919e-05
3.52919e-05
2.51168e-05
2.51234e-05
2.52939e-05
2.56266e-05
2.61272e-05
2.67725e-05
2.75242e-05
2.83488e-05
2.922e-05
3.01141e-05
3.10094e-05
3.18871e-05
3.2731e-05
3.35256e-05
3.42573e-05
3.4914e-05
3.54856e-05
3.59628e-05
3.63389e-05
3.66076e-05
3.67647e-05
3.68187e-05
3.67862e-05
3.66731e-05
3.64884e-05
3.6241e-05
3.59392e-05
3.55913e-05
3.52048e-05
3.47866e-05
3.43429e-05
3.38789e-05
3.34011e-05
3.2912e-05
3.24138e-05
3.19115e-05
3.14108e-05
3.09088e-05
3.04175e-05
2.98672e-05
2.96387e-05
2.09938e-05
2.10005e-05
2.11495e-05
2.14393e-05
2.18683e-05
2.24153e-05
2.30474e-05
2.37365e-05
2.44604e-05
2.51994e-05
2.59358e-05
2.66544e-05
2.7342e-05
2.79865e-05
2.85774e-05
2.91054e-05
2.95629e-05
2.99432e-05
3.02416e-05
3.04537e-05
3.05766e-05
3.06177e-05
3.05917e-05
3.05027e-05
3.03579e-05
3.01643e-05
2.99286e-05
2.9657e-05
2.93554e-05
2.9029e-05
2.86827e-05
2.83204e-05
2.79472e-05
2.75651e-05
2.71758e-05
2.67829e-05
2.63907e-05
2.59975e-05
2.56122e-05
2.51806e-05
2.50082e-05
1.75644e-05
1.75737e-05
1.77083e-05
1.79653e-05
1.83378e-05
1.88058e-05
1.93417e-05
1.99217e-05
2.05271e-05
2.11419e-05
2.17515e-05
2.23434e-05
2.29072e-05
2.34334e-05
2.39137e-05
2.43412e-05
2.47101e-05
2.50156e-05
2.52543e-05
2.54234e-05
2.55205e-05
2.55524e-05
2.55316e-05
2.54611e-05
2.53466e-05
2.51938e-05
2.50079e-05
2.47939e-05
2.45564e-05
2.42995e-05
2.40267e-05
2.37416e-05
2.34477e-05
2.3147e-05
2.28407e-05
2.25317e-05
2.22229e-05
2.19133e-05
2.16094e-05
2.12713e-05
2.11317e-05
1.47039e-05
1.47174e-05
1.48425e-05
1.50741e-05
1.5401e-05
1.58049e-05
1.62624e-05
1.67536e-05
1.72631e-05
1.77776e-05
1.82853e-05
1.87761e-05
1.92415e-05
1.9674e-05
2.00673e-05
2.04161e-05
2.07163e-05
2.09644e-05
2.11583e-05
2.12962e-05
2.13765e-05
2.1405e-05
2.13928e-05
2.13418e-05
2.12563e-05
2.11408e-05
2.09995e-05
2.0836e-05
2.06539e-05
2.04563e-05
2.02461e-05
2.00259e-05
1.97979e-05
1.9565e-05
1.93274e-05
1.90868e-05
1.88459e-05
1.86041e-05
1.83667e-05
1.81021e-05
1.80009e-05
1.23125e-05
1.23311e-05
1.24498e-05
1.2661e-05
1.29502e-05
1.3301e-05
1.36939e-05
1.41124e-05
1.45436e-05
1.49766e-05
1.54019e-05
1.58113e-05
1.61981e-05
1.65564e-05
1.68811e-05
1.71682e-05
1.74147e-05
1.7618e-05
1.77766e-05
1.78893e-05
1.79547e-05
1.79776e-05
1.79677e-05
1.79263e-05
1.78571e-05
1.7764e-05
1.76506e-05
1.75199e-05
1.73749e-05
1.72182e-05
1.70519e-05
1.6878e-05
1.6698e-05
1.65142e-05
1.63272e-05
1.61378e-05
1.5948e-05
1.57579e-05
1.55704e-05
1.53661e-05
1.52725e-05
1.03098e-05
1.03338e-05
1.04482e-05
1.06421e-05
1.0899e-05
1.12045e-05
1.15429e-05
1.19008e-05
1.22677e-05
1.26344e-05
1.29931e-05
1.3337e-05
1.36607e-05
1.39598e-05
1.42303e-05
1.44695e-05
1.46751e-05
1.48456e-05
1.49803e-05
1.50788e-05
1.51406e-05
1.51696e-05
1.51739e-05
1.51541e-05
1.51126e-05
1.5052e-05
1.49751e-05
1.48839e-05
1.47807e-05
1.46671e-05
1.45449e-05
1.44156e-05
1.42803e-05
1.4141e-05
1.39983e-05
1.38526e-05
1.37058e-05
1.35581e-05
1.34131e-05
1.32505e-05
1.3198e-05
8.63025e-06
8.65941e-06
8.77068e-06
8.94936e-06
9.17781e-06
9.44393e-06
9.73524e-06
1.00412e-05
1.03537e-05
1.06655e-05
1.097e-05
1.12615e-05
1.15352e-05
1.17873e-05
1.20147e-05
1.22153e-05
1.23871e-05
1.25289e-05
1.26396e-05
1.27187e-05
1.27653e-05
1.27828e-05
1.27786e-05
1.27539e-05
1.27113e-05
1.26539e-05
1.25843e-05
1.25048e-05
1.24172e-05
1.23231e-05
1.22238e-05
1.21205e-05
1.20139e-05
1.19056e-05
1.17955e-05
1.16836e-05
1.1571e-05
1.14587e-05
1.13464e-05
1.12304e-05
1.11564e-05
7.22098e-06
7.25412e-06
7.36156e-06
7.52539e-06
7.72823e-06
7.96024e-06
8.21138e-06
8.47306e-06
8.73875e-06
9.0031e-06
9.26134e-06
9.50919e-06
9.74276e-06
9.95857e-06
1.01539e-05
1.03272e-05
1.04778e-05
1.06057e-05
1.07117e-05
1.07961e-05
1.08588e-05
1.0902e-05
1.09306e-05
1.09438e-05
1.0942e-05
1.09267e-05
1.08992e-05
1.08604e-05
1.08118e-05
1.07544e-05
1.06895e-05
1.06183e-05
1.05417e-05
1.04615e-05
1.03778e-05
1.02903e-05
1.02016e-05
1.0111e-05
1.00232e-05
9.9178e-06
9.91207e-06
6.03954e-06
6.0753e-06
6.1769e-06
6.32357e-06
6.5e-06
6.69995e-06
6.91633e-06
7.14196e-06
7.37059e-06
7.59679e-06
7.81615e-06
8.02558e-06
8.2229e-06
8.40611e-06
8.57285e-06
8.72041e-06
8.84603e-06
8.94744e-06
9.02343e-06
9.07409e-06
9.09903e-06
9.10192e-06
9.08958e-06
9.06432e-06
9.02901e-06
8.9864e-06
8.93867e-06
8.88745e-06
8.83398e-06
8.77914e-06
8.72362e-06
8.66788e-06
8.61209e-06
8.55682e-06
8.50183e-06
8.44662e-06
8.39121e-06
8.33699e-06
8.28011e-06
8.23288e-06
8.15647e-06
5.05094e-06
5.0891e-06
5.18425e-06
5.31208e-06
5.45938e-06
5.62374e-06
5.80228e-06
5.99155e-06
6.18762e-06
6.38557e-06
6.57969e-06
6.76473e-06
6.93703e-06
7.09516e-06
7.23992e-06
7.37349e-06
7.49828e-06
7.61589e-06
7.7268e-06
7.83009e-06
7.92443e-06
8.00816e-06
8.08214e-06
8.14306e-06
8.18967e-06
8.22201e-06
8.24049e-06
8.24567e-06
8.23846e-06
8.22e-06
8.19164e-06
8.15452e-06
8.11021e-06
8.05947e-06
8.00446e-06
7.94479e-06
7.88226e-06
7.8164e-06
7.75514e-06
7.66526e-06
7.7155e-06
4.22343e-06
4.26237e-06
4.35122e-06
4.46347e-06
4.58666e-06
4.71882e-06
4.858e-06
5.00303e-06
5.15404e-06
5.31117e-06
5.4734e-06
5.63767e-06
5.79855e-06
5.94871e-06
6.08035e-06
6.18691e-06
6.26448e-06
6.3124e-06
6.33269e-06
6.32988e-06
6.30618e-06
6.26783e-06
6.22203e-06
6.17329e-06
6.12459e-06
6.0781e-06
6.0354e-06
5.99756e-06
5.96515e-06
5.93834e-06
5.91696e-06
5.90077e-06
5.88909e-06
5.88147e-06
5.87793e-06
5.87771e-06
5.87768e-06
5.88141e-06
5.87931e-06
5.9074e-06
5.8076e-06
3.52973e-06
3.56127e-06
3.63512e-06
3.72872e-06
3.83431e-06
3.95067e-06
4.07321e-06
4.19623e-06
4.31542e-06
4.42879e-06
4.53733e-06
4.64493e-06
4.75729e-06
4.88037e-06
5.01869e-06
5.17421e-06
5.34585e-06
5.52954e-06
5.7193e-06
5.90741e-06
6.08931e-06
6.25843e-06
6.41094e-06
6.54139e-06
6.6484e-06
6.73248e-06
6.79477e-06
6.83678e-06
6.86032e-06
6.86725e-06
6.8594e-06
6.83833e-06
6.80597e-06
6.76338e-06
6.71247e-06
6.65329e-06
6.58869e-06
6.51659e-06
6.45053e-06
6.33704e-06
6.43347e-06
2.95559e-06
2.97343e-06
3.01768e-06
3.06998e-06
3.13172e-06
3.21116e-06
3.31202e-06
3.43353e-06
3.57039e-06
3.71281e-06
3.84794e-06
3.96254e-06
4.04584e-06
4.09174e-06
4.09988e-06
4.07533e-06
4.02676e-06
3.9641e-06
3.896e-06
3.8305e-06
3.76574e-06
3.70273e-06
3.64082e-06
3.5835e-06
3.53148e-06
3.48527e-06
3.4462e-06
3.41618e-06
3.3967e-06
3.38836e-06
3.39112e-06
3.40481e-06
3.42891e-06
3.46303e-06
3.50695e-06
3.56018e-06
3.61899e-06
3.68735e-06
3.75192e-06
3.86373e-06
3.80097e-06
2.49941e-06
2.52018e-06
2.55287e-06
2.57238e-06
2.57809e-06
2.57931e-06
2.58416e-06
2.60075e-06
2.63847e-06
2.70777e-06
2.81888e-06
2.97943e-06
3.19197e-06
3.45249e-06
3.75097e-06
4.07316e-06
4.40306e-06
4.72514e-06
5.02669e-06
5.2957e-06
5.53324e-06
5.73905e-06
5.90869e-06
6.04273e-06
6.14565e-06
6.22241e-06
6.2764e-06
6.3132e-06
6.33383e-06
6.3431e-06
6.34346e-06
6.33519e-06
6.31868e-06
6.29383e-06
6.26159e-06
6.22192e-06
6.17728e-06
6.12453e-06
6.07374e-06
5.99677e-06
6.0145e-06
2.145e-06
2.18202e-06
2.23896e-06
2.28724e-06
2.3136e-06
2.31399e-06
2.28699e-06
2.23602e-06
2.17024e-06
2.10318e-06
2.05031e-06
2.02574e-06
2.03844e-06
2.08955e-06
2.17235e-06
2.27486e-06
2.38348e-06
2.48612e-06
2.57413e-06
2.64302e-06
2.68878e-06
2.71072e-06
2.69969e-06
2.66662e-06
2.61948e-06
2.56295e-06
2.50378e-06
2.45448e-06
2.42714e-06
2.41899e-06
2.42018e-06
2.42649e-06
2.4371e-06
2.45118e-06
2.468e-06
2.48632e-06
2.50726e-06
2.52319e-06
2.56092e-06
2.50701e-06
2.80691e-06
1.8461e-06
1.83874e-06
1.90139e-06
2.09933e-06
2.45887e-06
2.9482e-06
3.50804e-06
4.08398e-06
4.63603e-06
5.13712e-06
5.5701e-06
5.92517e-06
6.19862e-06
6.39129e-06
6.5077e-06
6.55518e-06
6.543e-06
6.48131e-06
6.38045e-06
6.2488e-06
6.09644e-06
5.95996e-06
5.81753e-06
5.67831e-06
5.54547e-06
5.41873e-06
5.30178e-06
5.17712e-06
5.0413e-06
4.90538e-06
4.77257e-06
4.64255e-06
4.51279e-06
4.37967e-06
4.24264e-06
4.0999e-06
3.94823e-06
3.7857e-06
3.59961e-06
3.4767e-06
3.03539e-06
22.9202
21.6358
17.6998
14.8727
12.7939
11.0635
9.51724
8.07994
6.72133
5.42949
4.21942
3.1082
2.12525
1.30477
0.684942
0.284591
0.0775288
0.00959542
1.84082e-05
0.0012285
1.93674e-05
1.5056e-05
5.30009e-05
9.13565e-05
0.000106052
9.71797e-05
8.17105e-05
7.20393e-05
6.51545e-05
5.9655e-05
5.45028e-05
4.94926e-05
4.47255e-05
4.02228e-05
3.59831e-05
3.20634e-05
2.84743e-05
2.52943e-05
2.25644e-05
2.02507e-05
1.82982e-05
1.66595e-05
1.52713e-05
1.4095e-05
1.30816e-05
1.30248e-05
1.26621e-05
1.15337e-05
1.04384e-05
9.55468e-06
8.79381e-06
8.17386e-06
7.58551e-06
7.03497e-06
6.53458e-06
6.01499e-06
5.51196e-06
5.30263e-06
4.62882e-06
4.16212e-06
3.72984e-06
3.43227e-06
3.22564e-06
2.90034e-06
2.59439e-06
2.36225e-06
2.13804e-06
1.93892e-06
1.74238e-06
1.55301e-06
1.51524e-06
1.28529e-06
1.27252e-06
8.8772e-07
11.0177
18.3019
18.2989
16.4772
14.6345
13.0508
11.666
10.3811
9.14034
7.91994
6.71649
5.53329
4.38298
3.28936
2.28895
1.43184
0.761841
0.320825
0.0907617
0.0134291
5.62747e-05
0.00123326
0.00011244
6.73187e-07
3.27817e-05
6.611e-05
8.41808e-05
8.30972e-05
7.17586e-05
6.21351e-05
5.50161e-05
4.95263e-05
4.4929e-05
4.07069e-05
3.66138e-05
3.26818e-05
2.89789e-05
2.56289e-05
2.27327e-05
2.02736e-05
1.82017e-05
1.64664e-05
1.50047e-05
1.3799e-05
1.26289e-05
1.34592e-05
1.30676e-05
1.24188e-05
1.14634e-05
1.05344e-05
9.70929e-06
9.07786e-06
8.51564e-06
7.96112e-06
7.45197e-06
6.88673e-06
6.32957e-06
5.63769e-06
4.66359e-06
4.13428e-06
3.68718e-06
3.35994e-06
3.16977e-06
2.89719e-06
2.5855e-06
2.34568e-06
2.12731e-06
1.92887e-06
1.72281e-06
1.50829e-06
1.46421e-06
1.25654e-06
1.24634e-06
8.78742e-07
4.94906
5.30913
9.01255
10.7159
11.1285
10.9796
10.6092
10.1122
9.51372
8.82376
8.04954
7.19673
6.27456
5.29866
4.29266
3.29216
2.33733
1.49338
0.81771
0.357097
0.110417
0.0192822
0.000446457
1.97163e-05
6.10264e-05
2.02497e-05
2.46722e-05
3.90173e-05
5.74989e-05
6.62116e-05
6.21779e-05
5.41234e-05
4.68762e-05
4.13026e-05
3.68254e-05
3.29175e-05
2.93259e-05
2.6011e-05
2.30511e-05
2.04557e-05
1.82132e-05
1.63104e-05
1.47201e-05
1.34557e-05
1.22806e-05
1.17567e-05
1.17926e-05
1.17898e-05
1.12267e-05
1.03896e-05
9.52068e-06
8.84397e-06
8.31969e-06
7.78738e-06
7.3188e-06
6.80047e-06
6.32991e-06
5.29615e-06
4.65771e-06
4.13618e-06
3.67375e-06
3.29083e-06
3.07522e-06
2.8575e-06
2.55476e-06
2.30907e-06
2.1011e-06
1.91112e-06
1.70971e-06
1.48361e-06
1.40435e-06
1.21735e-06
1.21331e-06
8.70551e-07
10.7916
8.29893
4.88566
3.0282
3.63566
4.79644
5.74862
6.43362
6.88597
7.12928
7.17772
7.03969
6.72646
6.25394
5.64057
4.91019
4.08606
3.21419
2.34526
1.54197
0.877602
0.407417
0.139169
0.0306647
0.00218109
0.000926749
0.000580662
1.69687e-07
2.66653e-05
3.1658e-05
3.98193e-05
4.86669e-05
5.08531e-05
4.67553e-05
4.03722e-05
3.46762e-05
3.0089e-05
2.63617e-05
2.32612e-05
2.06181e-05
1.83192e-05
1.63104e-05
1.45866e-05
1.3191e-05
1.2082e-05
1.05072e-05
9.95522e-06
1.00199e-05
9.85627e-06
9.28545e-06
8.47046e-06
7.75802e-06
7.23009e-06
6.7184e-06
6.29709e-06
5.85617e-06
5.46193e-06
5.13227e-06
4.65604e-06
4.16978e-06
3.70247e-06
3.26874e-06
3.00864e-06
2.8044e-06
2.51736e-06
2.26221e-06
2.05907e-06
1.88281e-06
1.69699e-06
1.47259e-06
1.36443e-06
1.18706e-06
1.18548e-06
8.61754e-07
12.908
12.7273
11.2017
8.9717
6.5583
4.35404
2.55001
1.50508
1.83707
2.75476
3.64069
4.35942
4.87739
5.18718
5.28858
5.18707
4.88667
4.41552
3.80648
3.09487
2.33495
1.59587
0.95465
0.475726
0.182572
0.0480726
0.00602302
4.61791e-06
0.000937246
0.000110233
1.47179e-05
4.30402e-06
2.28168e-05
3.03447e-05
3.5957e-05
3.73777e-05
3.41697e-05
2.93722e-05
2.49255e-05
2.1358e-05
1.84962e-05
1.61925e-05
1.43622e-05
1.29172e-05
1.19013e-05
1.03625e-05
9.26445e-06
8.95003e-06
8.92418e-06
8.70808e-06
8.1362e-06
7.47816e-06
6.94285e-06
6.42258e-06
5.97784e-06
5.5329e-06
5.11264e-06
4.89739e-06
4.57173e-06
4.18311e-06
3.7499e-06
3.29594e-06
2.98288e-06
2.76349e-06
2.4872e-06
2.21986e-06
2.0108e-06
1.8412e-06
1.67315e-06
1.46035e-06
1.33831e-06
1.16834e-06
1.1657e-06
8.58588e-07
13.2896
13.3151
12.9083
12.1961
11.1305
9.76285
8.21553
6.57499
4.94487
3.3955
1.9904
0.917841
1.03991
1.88745
2.69228
3.33536
3.7742
4.00234
4.01907
3.83018
3.45544
2.93018
2.30693
1.65398
1.0505
0.56771
0.246232
0.0789034
0.0157644
0.000624269
2.83256e-05
7.2815e-05
4.55753e-06
8.07651e-07
1.38083e-05
2.02149e-05
2.42601e-05
2.67669e-05
2.72404e-05
2.47149e-05
2.09566e-05
1.75363e-05
1.4819e-05
1.27672e-05
1.14791e-05
1.02017e-05
9.00034e-06
8.27286e-06
8.05278e-06
8.02016e-06
7.76977e-06
7.30551e-06
6.82009e-06
6.3037e-06
5.84333e-06
5.39098e-06
4.93566e-06
4.66281e-06
4.40235e-06
4.12772e-06
3.77941e-06
3.34861e-06
2.99702e-06
2.74431e-06
2.46838e-06
2.19067e-06
1.96984e-06
1.79754e-06
1.64115e-06
1.44137e-06
1.31453e-06
1.15412e-06
1.14954e-06
8.62369e-07
10.8227
10.3647
9.99122
9.82557
9.737
9.6293
9.40286
8.97713
8.31869
7.44068
6.38363
5.19869
3.95489
2.71749
1.54786
0.591687
0.78392
1.55248
2.22635
2.72922
3.03105
3.11964
2.99913
2.69102
2.23766
1.70009
1.15633
0.682481
0.335999
0.127664
0.0342894
0.00455488
9.95302e-05
0.000782182
3.32954e-05
7.4646e-06
3.92332e-06
1.07079e-05
1.52357e-05
1.66529e-05
1.85612e-05
1.89102e-05
1.71214e-05
1.46135e-05
1.24662e-05
1.06701e-05
9.08008e-06
7.82625e-06
7.15398e-06
7.04405e-06
7.08145e-06
6.9789e-06
6.71011e-06
6.25922e-06
5.78091e-06
5.30574e-06
4.83193e-06
4.48726e-06
4.21149e-06
4.00647e-06
3.76312e-06
3.40046e-06
3.04291e-06
2.75166e-06
2.46014e-06
2.17144e-06
1.93987e-06
1.76207e-06
1.61127e-06
1.42095e-06
1.29094e-06
1.13955e-06
1.13222e-06
8.69439e-07
4.45615
4.14824
3.91738
3.87291
3.97988
4.23152
4.60781
5.0652
5.53648
5.94302
6.20543
6.25582
6.05465
5.59829
4.91536
4.05571
3.08289
2.07748
1.10386
0.331161
0.748762
1.40675
1.92802
2.26666
2.40205
2.33384
2.08485
1.70133
1.25158
0.812267
0.449994
0.203117
0.068655
0.0158042
0.00125031
0.000540726
0.000566694
5.02319e-05
1.146e-06
4.54974e-06
8.71172e-06
9.73734e-06
9.62708e-06
1.1037e-05
1.22251e-05
1.19094e-05
1.05961e-05
8.92066e-06
7.40079e-06
6.46308e-06
6.12106e-06
6.13276e-06
6.20812e-06
6.0593e-06
5.72597e-06
5.2807e-06
4.7989e-06
4.39851e-06
4.06368e-06
3.85633e-06
3.68906e-06
3.42134e-06
3.10404e-06
2.79287e-06
2.47301e-06
2.16225e-06
1.91699e-06
1.73485e-06
1.58904e-06
1.40684e-06
1.27257e-06
1.12621e-06
1.11216e-06
8.74851e-07
0.488538
0.433688
0.386627
0.368967
0.374489
0.404684
0.474931
0.600371
0.798174
1.08619
1.47571
1.96128
2.51236
3.07174
3.56239
3.90408
4.02546
3.89887
3.53066
2.95443
2.23689
1.45063
0.670022
0.228201
0.781244
1.29042
1.64503
1.81535
1.79536
1.60637
1.29554
0.930731
0.582662
0.308701
0.131333
0.0415002
0.008376
0.00033414
0.000584995
0.000403822
1.69429e-05
1.02534e-06
4.18606e-06
7.11763e-06
5.91727e-06
4.75703e-06
5.89177e-06
7.52438e-06
7.83052e-06
7.24431e-06
6.50349e-06
5.99238e-06
5.76191e-06
5.58973e-06
5.37045e-06
5.04828e-06
4.66192e-06
4.31086e-06
3.97539e-06
3.74699e-06
3.60327e-06
3.41035e-06
3.15975e-06
2.8629e-06
2.52014e-06
2.17479e-06
1.90288e-06
1.71173e-06
1.57164e-06
1.40103e-06
1.2644e-06
1.11939e-06
1.09179e-06
8.76305e-07
0.000574057