/*--------------------------------*- C++ -*----------------------------------*\
| =========                 |                                                 |
| \\      /  F ield         | OpenFOAM: The Open Source CFD Toolbox           |
|  \\    /   O peration     | Version:  2312                                  |
|   \\  /    A nd           | Website:  www.openfoam.com                      |
|    \\/     M anipulation  |                                                 |
\*---------------------------------------------------------------------------*/
FoamFile
{
    version     2.0;
    format      ascii;
    arch        "LSB;label=32;scalar=64";
    class       volScalarField;
    location    "150";
    object      turbulenceProperties:nuEff;
}
// * * * * * * * * * * * * * * * * * * * * * * * * * * * * * * * * * * * * * //

dimensions      [0 2 -1 0 0 0 0];

internalField   nonuniform List<scalar> 
11040
(
3.82161e-05
7.13772e-05
0.000120574
0.000190359
0.000326439
0.000766303
0.000855981
0.000874554
0.0009512
0.00107715
0.00125113
0.00141222
0.00154744
0.00165751
0.00174425
0.0018084
0.00185066
0.0018732
0.00187941
0.00187345
0.00185602
0.00183045
0.00180422
0.0017784
0.00175225
0.00172374
0.00169258
0.00165878
0.00162182
0.00158091
0.00153508
0.00148335
0.00142468
0.00135771
0.00128079
0.00119206
0.00107809
0.000846824
0.00068637
0.000625491
0.000712482
1.51884e-05
1.63654e-05
3.53899e-05
9.81586e-05
0.000184692
0.000419519
0.000759885
0.00123956
0.0020061
0.00294406
0.0035884
0.00391272
0.00406303
0.00414222
0.00419276
0.00421809
0.00420698
0.00415556
0.00407434
0.00398194
0.00389206
0.00381833
0.00375805
0.00369606
0.00363595
0.00357943
0.00352899
0.0034854
0.00344788
0.00341512
0.00338584
0.00335909
0.00333421
0.00331024
0.00328638
0.00326059
0.00322817
0.00315268
0.00307951
0.00299834
0.00358613
1.63796e-05
1.65667e-05
1.60242e-05
1.99466e-05
3.49321e-05
9.07667e-05
0.000215493
0.000400224
0.000660638
0.00100996
0.00147507
0.00204319
0.00268382
0.00334688
0.00396554
0.00447572
0.00484232
0.00507287
0.00520508
0.00528974
0.00535884
0.00541916
0.0054714
0.00550158
0.00552291
0.00553581
0.00554426
0.00555111
0.00555681
0.00556071
0.0055618
0.00555959
0.00555421
0.00554568
0.00553447
0.00552054
0.00550565
0.00547755
0.00546353
0.0053978
0.00573132
1.6144e-05
1.62086e-05
1.61542e-05
1.54846e-05
1.49508e-05
1.35364e-05
1.48245e-05
2.68759e-05
6.11826e-05
0.000111186
0.000165923
0.000230453
0.000332744
0.000513379
0.000814761
0.00126551
0.00186676
0.00258418
0.00335547
0.00410181
0.00475577
0.00526197
0.00562418
0.00588226
0.00608287
0.00625331
0.00640563
0.00654408
0.00666974
0.00678318
0.00688528
0.00697742
0.0070612
0.00713777
0.0072078
0.00727074
0.00732854
0.00737487
0.00743236
0.00744681
0.00761534
1.61479e-05
1.61508e-05
1.6187e-05
1.61252e-05
1.58248e-05
1.47059e-05
1.26746e-05
1.0972e-05
1.01996e-05
1.00199e-05
1.00011e-05
1.00003e-05
1.00018e-05
1.0013e-05
1.01484e-05
1.44609e-05
7.74714e-05
0.000228692
0.000476845
0.000872019
0.00144949
0.00215629
0.00289783
0.00361965
0.0042885
0.00488886
0.00541315
0.00586487
0.00625455
0.00659537
0.00690031
0.00718012
0.00744246
0.00769252
0.00793228
0.00816064
0.00837749
0.00857935
0.00877887
0.00895185
0.00911987
1.61194e-05
1.61209e-05
1.6123e-05
1.61303e-05
1.61381e-05
1.61103e-05
1.57784e-05
1.48935e-05
1.36504e-05
1.25085e-05
1.17389e-05
1.13024e-05
1.10426e-05
1.07756e-05
1.04774e-05
1.00498e-05
1.00355e-05
1e-05
8.85345e-05
1.00035e-05
2.42916e-05
0.00015348
0.000348494
0.000623618
0.000991252
0.00144458
0.0019723
0.00255876
0.00318701
0.00383892
0.00449792
0.00515002
0.00578435
0.00639583
0.00698084
0.00753625
0.00806125
0.00856016
0.00903606
0.00948461
0.00989782
1.6114e-05
1.61174e-05
1.6121e-05
1.61249e-05
1.61273e-05
1.61439e-05
1.61963e-05
1.62519e-05
1.62524e-05
1.61754e-05
1.6051e-05
1.59153e-05
1.57845e-05
1.56369e-05
1.54659e-05
1.51469e-05
1.45928e-05
1.34378e-05
1.19137e-05
1.03728e-05
1.00001e-05
1.51692e-05
1e-05
3.16262e-05
3.88304e-05
4.50308e-05
0.000131251
0.000263305
0.000452046
0.000712656
0.00106247
0.00150741
0.00205253
0.00270123
0.00344989
0.00428604
0.00518711
0.00613995
0.00711149
0.00805994
0.00907279
1.61142e-05
1.61173e-05
1.61193e-05
1.61213e-05
1.61235e-05
1.61247e-05
1.61296e-05
1.61523e-05
1.62019e-05
1.62713e-05
1.63442e-05
1.64093e-05
1.64638e-05
1.65133e-05
1.65552e-05
1.66133e-05
1.66441e-05
1.66908e-05
1.65083e-05
1.60844e-05
1.50326e-05
1.37291e-05
1.21729e-05
1.11771e-05
1.01537e-05
1.04689e-05
1.25132e-05
2.67999e-05
1.00144e-05
4.58192e-05
3.36067e-05
3.0565e-05
0.000130622
0.000289293
0.000532248
0.000895331
0.00140694
0.0021009
0.00298767
0.00401398
0.00544266
1.61134e-05
1.61156e-05
1.61166e-05
1.61176e-05
1.61188e-05
1.61202e-05
1.61214e-05
1.61221e-05
1.61244e-05
1.61314e-05
1.61439e-05
1.6161e-05
1.61811e-05
1.6204e-05
1.62291e-05
1.62597e-05
1.63011e-05
1.63586e-05
1.6424e-05
1.64983e-05
1.66404e-05
1.65651e-05
1.6246e-05
1.54826e-05
1.49242e-05
1.40196e-05
1.2795e-05
1.17689e-05
1.08018e-05
1.02425e-05
1.00001e-05
1.0149e-05
1.162e-05
2.5897e-05
1.00518e-05
1.48181e-05
4.88978e-05
0.000153558
0.000370992
0.000702866
0.00146646
1.61124e-05
1.61134e-05
1.61133e-05
1.61132e-05
1.61133e-05
1.61139e-05
1.61146e-05
1.61154e-05
1.61158e-05
1.61156e-05
1.61147e-05
1.61137e-05
1.61129e-05
1.61128e-05
1.61139e-05
1.61161e-05
1.61198e-05
1.61263e-05
1.61398e-05
1.61584e-05
1.61996e-05
1.62564e-05
1.63368e-05
1.6412e-05
1.65075e-05
1.66099e-05
1.65787e-05
1.62242e-05
1.56336e-05
1.48345e-05
1.42869e-05
1.32013e-05
1.18827e-05
1.07606e-05
1.01385e-05
1.00539e-05
1.01496e-05
1.14979e-05
2.99488e-05
9.80868e-05
1.82504e-05
1.61109e-05
1.61106e-05
1.61095e-05
1.61087e-05
1.61083e-05
1.61083e-05
1.61086e-05
1.61092e-05
1.61097e-05
1.61102e-05
1.61105e-05
1.61101e-05
1.61094e-05
1.61087e-05
1.61077e-05
1.61063e-05
1.61046e-05
1.61028e-05
1.6101e-05
1.60998e-05
1.60978e-05
1.60995e-05
1.61071e-05
1.61263e-05
1.61536e-05
1.61935e-05
1.62501e-05
1.63183e-05
1.64045e-05
1.64738e-05
1.65836e-05
1.66079e-05
1.64031e-05
1.57749e-05
1.45674e-05
1.30001e-05
1.17916e-05
1.07698e-05
1.0037e-05
1.0002e-05
1.00182e-05
1.61087e-05
1.61073e-05
1.61058e-05
1.61048e-05
1.61043e-05
1.61042e-05
1.61043e-05
1.61047e-05
1.61051e-05
1.61054e-05
1.61057e-05
1.61058e-05
1.61058e-05
1.61058e-05
1.6106e-05
1.6106e-05
1.61059e-05
1.61058e-05
1.61051e-05
1.61041e-05
1.61023e-05
1.61004e-05
1.60985e-05
1.60968e-05
1.60959e-05
1.60959e-05
1.60984e-05
1.61047e-05
1.61186e-05
1.61395e-05
1.61771e-05
1.62364e-05
1.632e-05
1.64074e-05
1.64837e-05
1.65252e-05
1.6364e-05
1.60095e-05
1.47074e-05
1.31847e-05
1.11431e-05
1.61059e-05
1.61041e-05
1.61028e-05
1.61021e-05
1.61019e-05
1.61019e-05
1.61021e-05
1.61024e-05
1.61027e-05
1.6103e-05
1.61033e-05
1.61034e-05
1.61034e-05
1.61033e-05
1.61034e-05
1.61036e-05
1.61038e-05
1.6104e-05
1.61042e-05
1.61043e-05
1.61041e-05
1.61039e-05
1.61036e-05
1.61031e-05
1.61025e-05
1.61016e-05
1.61004e-05
1.60989e-05
1.60973e-05
1.60963e-05
1.60954e-05
1.60964e-05
1.6103e-05
1.61211e-05
1.61544e-05
1.6212e-05
1.62909e-05
1.64216e-05
1.6568e-05
1.6671e-05
1.61948e-05
1.61031e-05
1.61016e-05
1.61009e-05
1.61007e-05
1.61008e-05
1.61009e-05
1.61012e-05
1.61014e-05
1.61017e-05
1.61019e-05
1.61022e-05
1.61024e-05
1.61025e-05
1.61024e-05
1.61024e-05
1.61024e-05
1.61025e-05
1.61026e-05
1.61027e-05
1.61029e-05
1.6103e-05
1.61029e-05
1.6103e-05
1.6103e-05
1.61031e-05
1.61031e-05
1.61032e-05
1.61031e-05
1.6103e-05
1.61026e-05
1.61021e-05
1.61011e-05
1.60997e-05
1.60983e-05
1.60974e-05
1.60976e-05
1.61003e-05
1.61138e-05
1.61577e-05
1.62389e-05
1.63869e-05
1.61007e-05
1.61001e-05
1.61e-05
1.61002e-05
1.61004e-05
1.61006e-05
1.61007e-05
1.61009e-05
1.61011e-05
1.61012e-05
1.61014e-05
1.61016e-05
1.61018e-05
1.61019e-05
1.6102e-05
1.61021e-05
1.6102e-05
1.61019e-05
1.61019e-05
1.61019e-05
1.61018e-05
1.61019e-05
1.61019e-05
1.6102e-05
1.61022e-05
1.61023e-05
1.61025e-05
1.61027e-05
1.61029e-05
1.61031e-05
1.61033e-05
1.61035e-05
1.61036e-05
1.61036e-05
1.61034e-05
1.61028e-05
1.61014e-05
1.60987e-05
1.60973e-05
1.60956e-05
1.61125e-05
1.60991e-05
1.60995e-05
1.60999e-05
1.61e-05
1.61001e-05
1.61001e-05
1.61001e-05
1.61001e-05
1.61002e-05
1.61003e-05
1.61004e-05
1.61006e-05
1.61007e-05
1.61009e-05
1.61011e-05
1.61012e-05
1.61013e-05
1.61014e-05
1.61015e-05
1.61016e-05
1.61017e-05
1.61018e-05
1.6102e-05
1.61021e-05
1.61023e-05
1.61025e-05
1.61027e-05
1.6103e-05
1.61032e-05
1.61035e-05
1.61037e-05
1.6104e-05
1.61043e-05
1.61046e-05
1.61049e-05
1.61053e-05
1.61056e-05
1.61056e-05
1.61053e-05
1.61045e-05
1.61021e-05
1.60981e-05
1.60995e-05
1.60998e-05
1.60997e-05
1.60996e-05
1.60995e-05
1.60993e-05
1.60992e-05
1.60992e-05
1.60992e-05
1.60992e-05
1.60992e-05
1.60992e-05
1.60992e-05
1.60993e-05
1.60993e-05
1.60993e-05
1.60993e-05
1.60992e-05
1.60993e-05
1.60993e-05
1.60993e-05
1.60993e-05
1.60994e-05
1.60995e-05
1.60996e-05
1.60998e-05
1.60999e-05
1.61001e-05
1.61002e-05
1.61004e-05
1.61006e-05
1.61009e-05
1.61011e-05
1.61014e-05
1.61017e-05
1.6102e-05
1.61024e-05
1.61027e-05
1.61033e-05
1.61034e-05
1.60975e-05
1.60991e-05
1.60994e-05
1.60994e-05
1.60992e-05
1.60991e-05
1.6099e-05
1.60989e-05
1.60989e-05
1.60989e-05
1.60989e-05
1.60989e-05
1.60989e-05
1.60989e-05
1.6099e-05
1.60991e-05
1.60991e-05
1.60992e-05
1.60993e-05
1.60995e-05
1.60996e-05
1.60997e-05
1.60998e-05
1.60998e-05
1.60999e-05
1.60999e-05
1.60999e-05
1.60999e-05
1.61e-05
1.61e-05
1.61e-05
1.60999e-05
1.60999e-05
1.60999e-05
1.60999e-05
1.60999e-05
1.60998e-05
1.60998e-05
1.60998e-05
1.60998e-05
1.61e-05
1.60969e-05
1.60985e-05
1.60988e-05
1.60986e-05
1.60984e-05
1.60982e-05
1.6098e-05
1.60979e-05
1.60979e-05
1.60978e-05
1.60979e-05
1.60979e-05
1.60979e-05
1.6098e-05
1.6098e-05
1.60981e-05
1.60982e-05
1.60983e-05
1.60984e-05
1.60985e-05
1.60986e-05
1.60987e-05
1.60988e-05
1.60989e-05
1.60989e-05
1.6099e-05
1.60991e-05
1.60991e-05
1.60991e-05
1.60992e-05
1.60992e-05
1.60992e-05
1.60992e-05
1.60992e-05
1.60992e-05
1.60992e-05
1.60991e-05
1.60991e-05
1.60991e-05
1.6099e-05
1.6099e-05
1.60966e-05
1.60981e-05
1.60981e-05
1.60979e-05
1.60976e-05
1.60974e-05
1.60972e-05
1.60971e-05
1.60971e-05
1.60971e-05
1.60971e-05
1.60972e-05
1.60972e-05
1.60973e-05
1.60974e-05
1.60974e-05
1.60975e-05
1.60976e-05
1.60977e-05
1.60978e-05
1.60979e-05
1.6098e-05
1.60981e-05
1.60981e-05
1.60982e-05
1.60982e-05
1.60983e-05
1.60983e-05
1.60983e-05
1.60984e-05
1.60984e-05
1.60984e-05
1.60984e-05
1.60984e-05
1.60984e-05
1.60983e-05
1.60983e-05
1.60983e-05
1.60983e-05
1.60982e-05
1.60982e-05
1.60964e-05
1.60976e-05
1.60975e-05
1.60971e-05
1.60968e-05
1.60966e-05
1.60965e-05
1.60964e-05
1.60964e-05
1.60965e-05
1.60965e-05
1.60966e-05
1.60967e-05
1.60967e-05
1.60968e-05
1.60969e-05
1.6097e-05
1.60971e-05
1.60972e-05
1.60973e-05
1.60974e-05
1.60975e-05
1.60976e-05
1.60977e-05
1.60977e-05
1.60978e-05
1.60978e-05
1.60979e-05
1.60979e-05
1.60979e-05
1.60979e-05
1.6098e-05
1.6098e-05
1.6098e-05
1.60979e-05
1.60979e-05
1.60979e-05
1.60979e-05
1.60979e-05
1.60979e-05
1.60978e-05
1.60962e-05
1.6097e-05
1.60968e-05
1.60964e-05
1.60961e-05
1.60959e-05
1.60959e-05
1.60958e-05
1.60959e-05
1.60959e-05
1.6096e-05
1.60961e-05
1.60962e-05
1.60963e-05
1.60964e-05
1.60965e-05
1.60966e-05
1.60967e-05
1.60968e-05
1.6097e-05
1.60971e-05
1.60972e-05
1.60973e-05
1.60974e-05
1.60974e-05
1.60975e-05
1.60976e-05
1.60976e-05
1.60977e-05
1.60977e-05
1.60977e-05
1.60977e-05
1.60978e-05
1.60978e-05
1.60978e-05
1.60978e-05
1.60978e-05
1.60978e-05
1.60978e-05
1.60978e-05
1.60977e-05
1.60958e-05
1.60964e-05
1.60961e-05
1.60957e-05
1.60954e-05
1.60953e-05
1.60953e-05
1.60953e-05
1.60954e-05
1.60955e-05
1.60956e-05
1.60957e-05
1.60958e-05
1.60959e-05
1.6096e-05
1.60962e-05
1.60963e-05
1.60964e-05
1.60966e-05
1.60967e-05
1.60968e-05
1.60969e-05
1.6097e-05
1.60971e-05
1.60972e-05
1.60973e-05
1.60974e-05
1.60975e-05
1.60975e-05
1.60976e-05
1.60976e-05
1.60976e-05
1.60977e-05
1.60977e-05
1.60977e-05
1.60977e-05
1.60977e-05
1.60978e-05
1.60978e-05
1.60978e-05
1.60977e-05
1.60954e-05
1.60957e-05
1.60954e-05
1.6095e-05
1.60948e-05
1.60947e-05
1.60947e-05
1.60948e-05
1.60949e-05
1.6095e-05
1.60952e-05
1.60953e-05
1.60955e-05
1.60956e-05
1.60957e-05
1.60959e-05
1.6096e-05
1.60962e-05
1.60963e-05
1.60965e-05
1.60966e-05
1.60967e-05
1.60969e-05
1.6097e-05
1.60971e-05
1.60972e-05
1.60973e-05
1.60974e-05
1.60974e-05
1.60975e-05
1.60975e-05
1.60976e-05
1.60976e-05
1.60977e-05
1.60977e-05
1.60978e-05
1.60978e-05
1.60978e-05
1.60978e-05
1.60979e-05
1.60978e-05
1.60949e-05
1.6095e-05
1.60947e-05
1.60944e-05
1.60942e-05
1.60942e-05
1.60942e-05
1.60944e-05
1.60945e-05
1.60946e-05
1.60948e-05
1.6095e-05
1.60951e-05
1.60953e-05
1.60955e-05
1.60956e-05
1.60958e-05
1.6096e-05
1.60961e-05
1.60963e-05
1.60964e-05
1.60966e-05
1.60967e-05
1.60969e-05
1.6097e-05
1.60971e-05
1.60972e-05
1.60973e-05
1.60974e-05
1.60975e-05
1.60975e-05
1.60976e-05
1.60977e-05
1.60977e-05
1.60978e-05
1.60978e-05
1.60978e-05
1.60979e-05
1.60979e-05
1.6098e-05
1.60979e-05
1.60943e-05
1.60944e-05
1.6094e-05
1.60938e-05
1.60937e-05
1.60937e-05
1.60938e-05
1.60939e-05
1.60941e-05
1.60943e-05
1.60945e-05
1.60946e-05
1.60948e-05
1.6095e-05
1.60952e-05
1.60954e-05
1.60956e-05
1.60958e-05
1.60959e-05
1.60961e-05
1.60963e-05
1.60965e-05
1.60966e-05
1.60967e-05
1.60969e-05
1.6097e-05
1.60971e-05
1.60972e-05
1.60973e-05
1.60974e-05
1.60975e-05
1.60976e-05
1.60977e-05
1.60977e-05
1.60978e-05
1.60979e-05
1.60979e-05
1.6098e-05
1.6098e-05
1.60981e-05
1.60981e-05
1.60937e-05
1.60937e-05
1.60933e-05
1.60931e-05
1.60931e-05
1.60932e-05
1.60933e-05
1.60935e-05
1.60937e-05
1.60939e-05
1.60941e-05
1.60943e-05
1.60945e-05
1.60947e-05
1.6095e-05
1.60952e-05
1.60954e-05
1.60956e-05
1.60957e-05
1.60959e-05
1.60961e-05
1.60963e-05
1.60965e-05
1.60966e-05
1.60968e-05
1.60969e-05
1.6097e-05
1.60972e-05
1.60973e-05
1.60974e-05
1.60975e-05
1.60976e-05
1.60977e-05
1.60977e-05
1.60978e-05
1.60979e-05
1.6098e-05
1.6098e-05
1.60981e-05
1.60982e-05
1.60981e-05
1.6093e-05
1.6093e-05
1.60927e-05
1.60925e-05
1.60925e-05
1.60927e-05
1.60928e-05
1.6093e-05
1.60933e-05
1.60935e-05
1.60937e-05
1.6094e-05
1.60942e-05
1.60944e-05
1.60947e-05
1.60949e-05
1.60951e-05
1.60953e-05
1.60955e-05
1.60957e-05
1.60959e-05
1.60961e-05
1.60963e-05
1.60965e-05
1.60966e-05
1.60968e-05
1.60969e-05
1.60971e-05
1.60972e-05
1.60973e-05
1.60974e-05
1.60975e-05
1.60976e-05
1.60977e-05
1.60978e-05
1.60979e-05
1.6098e-05
1.6098e-05
1.60981e-05
1.60982e-05
1.60982e-05
1.60924e-05
1.60923e-05
1.6092e-05
1.60919e-05
1.6092e-05
1.60921e-05
1.60923e-05
1.60926e-05
1.60928e-05
1.60931e-05
1.60933e-05
1.60936e-05
1.60938e-05
1.60941e-05
1.60943e-05
1.60946e-05
1.60948e-05
1.6095e-05
1.60953e-05
1.60955e-05
1.60957e-05
1.60959e-05
1.60961e-05
1.60963e-05
1.60964e-05
1.60966e-05
1.60967e-05
1.60969e-05
1.6097e-05
1.60972e-05
1.60973e-05
1.60974e-05
1.60975e-05
1.60976e-05
1.60977e-05
1.60978e-05
1.60979e-05
1.6098e-05
1.6098e-05
1.60981e-05
1.60982e-05
1.60916e-05
1.60915e-05
1.60913e-05
1.60913e-05
1.60914e-05
1.60916e-05
1.60918e-05
1.60921e-05
1.60923e-05
1.60926e-05
1.60929e-05
1.60931e-05
1.60934e-05
1.60937e-05
1.60939e-05
1.60942e-05
1.60944e-05
1.60947e-05
1.60949e-05
1.60951e-05
1.60954e-05
1.60956e-05
1.60958e-05
1.6096e-05
1.60962e-05
1.60963e-05
1.60965e-05
1.60967e-05
1.60968e-05
1.60969e-05
1.60971e-05
1.60972e-05
1.60973e-05
1.60974e-05
1.60975e-05
1.60976e-05
1.60977e-05
1.60978e-05
1.60979e-05
1.6098e-05
1.6098e-05
1.60909e-05
1.60908e-05
1.60906e-05
1.60906e-05
1.60908e-05
1.6091e-05
1.60912e-05
1.60915e-05
1.60918e-05
1.60921e-05
1.60924e-05
1.60926e-05
1.60929e-05
1.60932e-05
1.60935e-05
1.60937e-05
1.6094e-05
1.60942e-05
1.60945e-05
1.60947e-05
1.6095e-05
1.60952e-05
1.60954e-05
1.60956e-05
1.60958e-05
1.6096e-05
1.60962e-05
1.60963e-05
1.60965e-05
1.60966e-05
1.60968e-05
1.60969e-05
1.6097e-05
1.60971e-05
1.60972e-05
1.60973e-05
1.60974e-05
1.60975e-05
1.60976e-05
1.60977e-05
1.60978e-05
1.60901e-05
1.609e-05
1.60899e-05
1.60899e-05
1.60901e-05
1.60903e-05
1.60906e-05
1.60909e-05
1.60912e-05
1.60915e-05
1.60918e-05
1.6092e-05
1.60923e-05
1.60926e-05
1.60929e-05
1.60932e-05
1.60934e-05
1.60937e-05
1.6094e-05
1.60942e-05
1.60945e-05
1.60947e-05
1.60949e-05
1.60951e-05
1.60953e-05
1.60955e-05
1.60957e-05
1.60959e-05
1.6096e-05
1.60962e-05
1.60963e-05
1.60965e-05
1.60966e-05
1.60967e-05
1.60968e-05
1.60969e-05
1.6097e-05
1.60971e-05
1.60972e-05
1.60973e-05
1.60974e-05
1.60893e-05
1.60892e-05
1.60891e-05
1.60892e-05
1.60894e-05
1.60896e-05
1.60899e-05
1.60902e-05
1.60905e-05
1.60907e-05
1.6091e-05
1.60913e-05
1.60916e-05
1.60919e-05
1.60922e-05
1.60925e-05
1.60928e-05
1.60931e-05
1.60933e-05
1.60936e-05
1.60938e-05
1.60941e-05
1.60943e-05
1.60945e-05
1.60947e-05
1.60949e-05
1.60951e-05
1.60953e-05
1.60954e-05
1.60956e-05
1.60957e-05
1.60959e-05
1.6096e-05
1.60961e-05
1.60963e-05
1.60964e-05
1.60965e-05
1.60966e-05
1.60967e-05
1.60968e-05
1.60968e-05
1.60884e-05
1.60883e-05
1.60883e-05
1.60884e-05
1.60886e-05
1.60888e-05
1.60891e-05
1.60894e-05
1.60896e-05
1.60899e-05
1.60902e-05
1.60905e-05
1.60908e-05
1.60911e-05
1.60914e-05
1.60917e-05
1.6092e-05
1.60923e-05
1.60926e-05
1.60928e-05
1.60931e-05
1.60933e-05
1.60936e-05
1.60938e-05
1.6094e-05
1.60942e-05
1.60944e-05
1.60946e-05
1.60947e-05
1.60949e-05
1.6095e-05
1.60952e-05
1.60953e-05
1.60954e-05
1.60955e-05
1.60957e-05
1.60958e-05
1.60959e-05
1.60959e-05
1.6096e-05
1.60961e-05
1.60875e-05
1.60875e-05
1.60875e-05
1.60876e-05
1.60877e-05
1.60879e-05
1.60882e-05
1.60884e-05
1.60887e-05
1.6089e-05
1.60893e-05
1.60896e-05
1.60899e-05
1.60902e-05
1.60905e-05
1.60908e-05
1.60911e-05
1.60914e-05
1.60917e-05
1.60919e-05
1.60922e-05
1.60924e-05
1.60927e-05
1.60929e-05
1.60931e-05
1.60933e-05
1.60935e-05
1.60937e-05
1.60939e-05
1.6094e-05
1.60942e-05
1.60943e-05
1.60944e-05
1.60946e-05
1.60947e-05
1.60948e-05
1.60949e-05
1.6095e-05
1.60951e-05
1.60952e-05
1.60952e-05
1.60866e-05
1.60865e-05
1.60865e-05
1.60866e-05
1.60868e-05
1.6087e-05
1.60872e-05
1.60874e-05
1.60877e-05
1.6088e-05
1.60882e-05
1.60885e-05
1.60888e-05
1.60891e-05
1.60895e-05
1.60898e-05
1.609e-05
1.60903e-05
1.60906e-05
1.60909e-05
1.60911e-05
1.60914e-05
1.60916e-05
1.60919e-05
1.60921e-05
1.60923e-05
1.60925e-05
1.60927e-05
1.60928e-05
1.6093e-05
1.60931e-05
1.60933e-05
1.60934e-05
1.60935e-05
1.60936e-05
1.60937e-05
1.60938e-05
1.60939e-05
1.6094e-05
1.60941e-05
1.60942e-05
1.60856e-05
1.60855e-05
1.60855e-05
1.60856e-05
1.60857e-05
1.60859e-05
1.60861e-05
1.60863e-05
1.60865e-05
1.60868e-05
1.60871e-05
1.60874e-05
1.60876e-05
1.6088e-05
1.60883e-05
1.60886e-05
1.60889e-05
1.60891e-05
1.60894e-05
1.60897e-05
1.609e-05
1.60902e-05
1.60905e-05
1.60907e-05
1.60909e-05
1.60911e-05
1.60913e-05
1.60915e-05
1.60916e-05
1.60918e-05
1.60919e-05
1.60921e-05
1.60922e-05
1.60923e-05
1.60924e-05
1.60925e-05
1.60926e-05
1.60927e-05
1.60928e-05
1.60929e-05
1.60929e-05
1.60845e-05
1.60845e-05
1.60845e-05
1.60845e-05
1.60846e-05
1.60847e-05
1.60849e-05
1.6085e-05
1.60853e-05
1.60855e-05
1.60858e-05
1.6086e-05
1.60863e-05
1.60866e-05
1.60869e-05
1.60872e-05
1.60875e-05
1.60878e-05
1.60881e-05
1.60883e-05
1.60886e-05
1.60889e-05
1.60891e-05
1.60893e-05
1.60895e-05
1.60897e-05
1.60899e-05
1.60901e-05
1.60903e-05
1.60904e-05
1.60906e-05
1.60907e-05
1.60908e-05
1.60909e-05
1.6091e-05
1.60911e-05
1.60912e-05
1.60913e-05
1.60914e-05
1.60915e-05
1.60915e-05
1.60833e-05
1.60833e-05
1.60833e-05
1.60833e-05
1.60833e-05
1.60834e-05
1.60835e-05
1.60837e-05
1.60839e-05
1.60841e-05
1.60843e-05
1.60846e-05
1.60849e-05
1.60851e-05
1.60854e-05
1.60857e-05
1.6086e-05
1.60863e-05
1.60866e-05
1.60868e-05
1.60871e-05
1.60873e-05
1.60876e-05
1.60878e-05
1.6088e-05
1.60882e-05
1.60884e-05
1.60885e-05
1.60887e-05
1.60888e-05
1.6089e-05
1.60891e-05
1.60892e-05
1.60893e-05
1.60894e-05
1.60895e-05
1.60896e-05
1.60897e-05
1.60897e-05
1.60898e-05
1.60899e-05
1.60821e-05
1.60821e-05
1.6082e-05
1.6082e-05
1.6082e-05
1.6082e-05
1.60821e-05
1.60822e-05
1.60824e-05
1.60826e-05
1.60828e-05
1.6083e-05
1.60833e-05
1.60835e-05
1.60838e-05
1.60841e-05
1.60843e-05
1.60846e-05
1.60849e-05
1.60851e-05
1.60854e-05
1.60856e-05
1.60858e-05
1.6086e-05
1.60862e-05
1.60864e-05
1.60866e-05
1.60868e-05
1.60869e-05
1.6087e-05
1.60872e-05
1.60873e-05
1.60874e-05
1.60875e-05
1.60876e-05
1.60877e-05
1.60878e-05
1.60878e-05
1.60879e-05
1.60879e-05
1.6088e-05
1.60808e-05
1.60808e-05
1.60807e-05
1.60806e-05
1.60805e-05
1.60805e-05
1.60806e-05
1.60806e-05
1.60808e-05
1.60809e-05
1.60811e-05
1.60813e-05
1.60815e-05
1.60817e-05
1.6082e-05
1.60822e-05
1.60825e-05
1.60827e-05
1.6083e-05
1.60832e-05
1.60834e-05
1.60836e-05
1.60839e-05
1.60841e-05
1.60842e-05
1.60844e-05
1.60846e-05
1.60847e-05
1.60849e-05
1.6085e-05
1.60851e-05
1.60852e-05
1.60853e-05
1.60854e-05
1.60855e-05
1.60855e-05
1.60856e-05
1.60856e-05
1.60857e-05
1.60857e-05
1.60858e-05
1.60794e-05
1.60793e-05
1.60792e-05
1.60791e-05
1.6079e-05
1.60789e-05
1.60789e-05
1.6079e-05
1.6079e-05
1.60791e-05
1.60793e-05
1.60794e-05
1.60796e-05
1.60798e-05
1.608e-05
1.60802e-05
1.60804e-05
1.60806e-05
1.60808e-05
1.6081e-05
1.60812e-05
1.60814e-05
1.60816e-05
1.60818e-05
1.6082e-05
1.60821e-05
1.60823e-05
1.60824e-05
1.60825e-05
1.60826e-05
1.60827e-05
1.60828e-05
1.60829e-05
1.6083e-05
1.60831e-05
1.60831e-05
1.60832e-05
1.60832e-05
1.60833e-05
1.60833e-05
1.60833e-05
1.60779e-05
1.60778e-05
1.60777e-05
1.60775e-05
1.60773e-05
1.60773e-05
1.60772e-05
1.60772e-05
1.60772e-05
1.60773e-05
1.60773e-05
1.60774e-05
1.60775e-05
1.60777e-05
1.60778e-05
1.6078e-05
1.60781e-05
1.60783e-05
1.60785e-05
1.60786e-05
1.60788e-05
1.60789e-05
1.60791e-05
1.60792e-05
1.60794e-05
1.60795e-05
1.60796e-05
1.60797e-05
1.60798e-05
1.60799e-05
1.608e-05
1.60801e-05
1.60801e-05
1.60802e-05
1.60802e-05
1.60802e-05
1.60803e-05
1.60803e-05
1.60803e-05
1.60803e-05
1.60803e-05
1.60763e-05
1.60762e-05
1.6076e-05
1.60758e-05
1.60756e-05
1.60755e-05
1.60754e-05
1.60754e-05
1.60753e-05
1.60753e-05
1.60753e-05
1.60753e-05
1.60754e-05
1.60754e-05
1.60755e-05
1.60755e-05
1.60756e-05
1.60757e-05
1.60758e-05
1.60759e-05
1.6076e-05
1.60761e-05
1.60762e-05
1.60763e-05
1.60764e-05
1.60764e-05
1.60765e-05
1.60766e-05
1.60767e-05
1.60767e-05
1.60768e-05
1.60768e-05
1.60769e-05
1.6077e-05
1.6077e-05
1.6077e-05
1.60771e-05
1.60771e-05
1.60771e-05
1.60772e-05
1.60772e-05
1.60746e-05
1.60745e-05
1.60743e-05
1.60741e-05
1.60739e-05
1.60738e-05
1.60736e-05
1.60735e-05
1.60734e-05
1.60733e-05
1.60733e-05
1.60732e-05
1.60731e-05
1.60731e-05
1.6073e-05
1.6073e-05
1.60729e-05
1.60729e-05
1.60729e-05
1.60729e-05
1.6073e-05
1.6073e-05
1.6073e-05
1.60731e-05
1.60731e-05
1.60732e-05
1.60732e-05
1.60733e-05
1.60733e-05
1.60733e-05
1.60734e-05
1.60734e-05
1.60734e-05
1.60734e-05
1.60734e-05
1.60733e-05
1.60733e-05
1.60733e-05
1.60732e-05
1.60732e-05
1.60732e-05
1.60728e-05
1.60727e-05
1.60725e-05
1.60723e-05
1.60721e-05
1.6072e-05
1.60719e-05
1.60717e-05
1.60716e-05
1.60714e-05
1.60713e-05
1.60711e-05
1.60709e-05
1.60708e-05
1.60706e-05
1.60705e-05
1.60703e-05
1.60702e-05
1.60701e-05
1.60701e-05
1.607e-05
1.607e-05
1.60699e-05
1.60699e-05
1.60699e-05
1.607e-05
1.607e-05
1.607e-05
1.607e-05
1.60701e-05
1.60701e-05
1.60701e-05
1.60701e-05
1.60701e-05
1.60701e-05
1.60701e-05
1.60701e-05
1.60701e-05
1.60701e-05
1.60701e-05
1.60702e-05
1.60708e-05
1.60707e-05
1.60706e-05
1.60705e-05
1.60704e-05
1.60703e-05
1.60702e-05
1.607e-05
1.60699e-05
1.60697e-05
1.60695e-05
1.60692e-05
1.6069e-05
1.60688e-05
1.60687e-05
1.60687e-05
1.60688e-05
1.60689e-05
1.6069e-05
1.60691e-05
1.60693e-05
1.60694e-05
1.60695e-05
1.60696e-05
1.60697e-05
1.60698e-05
1.60699e-05
1.607e-05
1.607e-05
1.60701e-05
1.60702e-05
1.60702e-05
1.60703e-05
1.60703e-05
1.60703e-05
1.60704e-05
1.60704e-05
1.60704e-05
1.60704e-05
1.60704e-05
1.60704e-05
1.60687e-05
1.60687e-05
1.60686e-05
1.60686e-05
1.60686e-05
1.60685e-05
1.60685e-05
1.60685e-05
1.60684e-05
1.60683e-05
1.60682e-05
1.6068e-05
1.60679e-05
1.6068e-05
1.60682e-05
1.60685e-05
1.60689e-05
1.60694e-05
1.607e-05
1.60706e-05
1.60712e-05
1.60719e-05
1.60726e-05
1.60734e-05
1.60742e-05
1.6075e-05
1.60758e-05
1.60766e-05
1.60773e-05
1.6078e-05
1.60786e-05
1.60792e-05
1.60798e-05
1.60803e-05
1.60807e-05
1.60812e-05
1.60816e-05
1.60819e-05
1.60823e-05
1.60826e-05
1.60829e-05
0.00418055
0.00571212
0.00643432
0.00681852
0.00701481
0.00707413
0.00701601
0.0068454
0.00656433
0.00616483
0.00565451
0.00503714
0.00432028
0.00350941
0.00263943
0.00177621
0.000964378
0.000375422
1.03026e-05
8.60612e-05
1.00384e-05
1.00596e-05
1.19457e-05
1.81629e-05
1.99845e-05
1.78201e-05
1.60746e-05
1.56034e-05
1.58136e-05
1.61069e-05
1.62295e-05
1.62074e-05
1.61495e-05
1.61144e-05
1.61054e-05
1.61076e-05
1.61094e-05
1.61077e-05
1.61039e-05
1.61003e-05
1.60981e-05
1.60972e-05
1.60972e-05
1.60974e-05
1.60976e-05
1.60977e-05
1.60981e-05
1.60985e-05
1.60988e-05
1.60991e-05
1.60993e-05
1.60995e-05
1.60996e-05
1.60997e-05
1.60996e-05
1.60994e-05
1.60991e-05
1.6099e-05
1.60985e-05
1.6098e-05
1.60975e-05
1.6097e-05
1.60964e-05
1.60959e-05
1.60954e-05
1.6095e-05
1.60946e-05
1.60944e-05
1.60943e-05
1.60943e-05
1.60945e-05
1.60947e-05
1.60951e-05
1.60958e-05
0.00594255
0.00748265
0.00830711
0.00871175
0.00890733
0.00898545
0.0089701
0.008859
0.00865004
0.00833968
0.00792578
0.00740466
0.00677347
0.00602793
0.00516566
0.00420321
0.00315046
0.0021063
0.0011458
0.00047576
4.33314e-05
0.000119063
1.16181e-05
1.00001e-05
1.07076e-05
1.4936e-05
1.87836e-05
1.82581e-05
1.67108e-05
1.59117e-05
1.57828e-05
1.59418e-05
1.6119e-05
1.61945e-05
1.6183e-05
1.61417e-05
1.61101e-05
1.60978e-05
1.60978e-05
1.61007e-05
1.61017e-05
1.61004e-05
1.60985e-05
1.60973e-05
1.6097e-05
1.60976e-05
1.60987e-05
1.60995e-05
1.61001e-05
1.61005e-05
1.61008e-05
1.61011e-05
1.61013e-05
1.61014e-05
1.61014e-05
1.61013e-05
1.6101e-05
1.61005e-05
1.60999e-05
1.60993e-05
1.60987e-05
1.60981e-05
1.60975e-05
1.60969e-05
1.60964e-05
1.60958e-05
1.60954e-05
1.6095e-05
1.60947e-05
1.60946e-05
1.60946e-05
1.60947e-05
1.6095e-05
1.60956e-05
0.00738999
0.00860749
0.00949235
0.00997158
0.0102448
0.0104102
0.0104894
0.0104753
0.0103729
0.0101859
0.00991153
0.00954158
0.00906703
0.00847976
0.00776965
0.00693272
0.00595241
0.00485531
0.00366451
0.00246341
0.00138452
0.000591056
8.06297e-05
1.01044e-05
1.05767e-05
1.01052e-05
1.03736e-05
1.21648e-05
1.67642e-05
1.90858e-05
1.78574e-05
1.64662e-05
1.5835e-05
1.57773e-05
1.59602e-05
1.61302e-05
1.61907e-05
1.61682e-05
1.61241e-05
1.60953e-05
1.60877e-05
1.60918e-05
1.60976e-05
1.61004e-05
1.61002e-05
1.60991e-05
1.6099e-05
1.60997e-05
1.61007e-05
1.61016e-05
1.61024e-05
1.61029e-05
1.61031e-05
1.61032e-05
1.61032e-05
1.61031e-05
1.61029e-05
1.61023e-05
1.61016e-05
1.61008e-05
1.61001e-05
1.60994e-05
1.60987e-05
1.60981e-05
1.60975e-05
1.60969e-05
1.60963e-05
1.60958e-05
1.60953e-05
1.6095e-05
1.60949e-05
1.60949e-05
1.60951e-05
1.60954e-05
0.00900006
0.0100093
0.0105482
0.0107573
0.0110221
0.0112615
0.0114284
0.0114966
0.0115077
0.0114682
0.011367
0.0111861
0.0109122
0.0105365
0.0100485
0.00943893
0.00868219
0.00778011
0.0067263
0.00552265
0.00421524
0.00289626
0.0016877
0.000801311
0.00021713
0.000232687
5.90187e-05
1e-05
1.03899e-05
1.14643e-05
1.47195e-05
1.8577e-05
1.88384e-05
1.73584e-05
1.61836e-05
1.57542e-05
1.57954e-05
1.6e-05
1.61521e-05
1.61908e-05
1.61592e-05
1.61153e-05
1.60892e-05
1.60839e-05
1.60898e-05
1.6097e-05
1.61016e-05
1.61033e-05
1.61033e-05
1.61029e-05
1.61029e-05
1.61035e-05
1.61042e-05
1.61048e-05
1.6105e-05
1.6105e-05
1.61048e-05
1.61043e-05
1.61035e-05
1.61026e-05
1.61017e-05
1.61009e-05
1.61002e-05
1.60995e-05
1.60988e-05
1.60981e-05
1.60974e-05
1.60968e-05
1.60962e-05
1.60958e-05
1.60954e-05
1.60952e-05
1.60952e-05
1.60954e-05
0.010088
0.0109883
0.0115996
0.0119109
0.0120441
0.0120954
0.012099
0.0120211
0.0120536
0.0121167
0.0121592
0.0121432
0.0120628
0.0119153
0.0116861
0.0113578
0.0108934
0.0102905
0.00954198
0.00862231
0.00752264
0.00625204
0.00485521
0.0034278
0.00210413
0.00106808
0.00037499
2.37577e-05
0.000136705
1.29574e-05
1.0099e-05
1.00228e-05
1.17823e-05
1.56468e-05
1.83799e-05
1.82225e-05
1.69454e-05
1.60345e-05
1.57074e-05
1.57946e-05
1.60045e-05
1.61486e-05
1.61851e-05
1.6156e-05
1.61142e-05
1.60885e-05
1.60834e-05
1.60906e-05
1.61e-05
1.6106e-05
1.61078e-05
1.61072e-05
1.61062e-05
1.61056e-05
1.61057e-05
1.6106e-05
1.61062e-05
1.61062e-05
1.61057e-05
1.61048e-05
1.61038e-05
1.61028e-05
1.61019e-05
1.61011e-05
1.61003e-05
1.60995e-05
1.60988e-05
1.6098e-05
1.60973e-05
1.60967e-05
1.60962e-05
1.60958e-05
1.60957e-05
1.60955e-05
0.0104388
0.0109766
0.0114835
0.0119304
0.0122904
0.0125447
0.012699
0.0127482
0.0127451
0.012715
0.0126622
0.0125626
0.01251
0.0125044
0.0124904
0.0124203
0.0122463
0.0119826
0.0116009
0.011072
0.0103693
0.00947125
0.00836825
0.00706833
0.00561738
0.00410464
0.00266958
0.00148885
0.000667775
0.000117737
1.06401e-05
1.15369e-05
1.00081e-05
1.00006e-05
1.05211e-05
1.32095e-05
1.75759e-05
1.89036e-05
1.81124e-05
1.68011e-05
1.59172e-05
1.56597e-05
1.57767e-05
1.59914e-05
1.61393e-05
1.61823e-05
1.61581e-05
1.6118e-05
1.60924e-05
1.60868e-05
1.60933e-05
1.61025e-05
1.61088e-05
1.61111e-05
1.61107e-05
1.61093e-05
1.61081e-05
1.61074e-05
1.61071e-05
1.61067e-05
1.6106e-05
1.61051e-05
1.61041e-05
1.61031e-05
1.61021e-05
1.61012e-05
1.61003e-05
1.60995e-05
1.60987e-05
1.60979e-05
1.60973e-05
1.60967e-05
1.60964e-05
1.60959e-05
0.00927837
0.00939885
0.00961317
0.00995983
0.0104217
0.0109499
0.0114769
0.0119497
0.0123377
0.0126302
0.012829
0.0129296
0.0129566
0.012938
0.0128843
0.0127779
0.0126899
0.0126469
0.0125825
0.0124326
0.0121608
0.0117362
0.0111275
0.0103054
0.00925447
0.00797431
0.00651139
0.00494518
0.00342256
0.00205949
0.00104955
0.000379604
0.000342995
0.000149871
1.04231e-05
1.00357e-05
1.0026e-05
1.06758e-05
1.42764e-05
1.83381e-05
1.93592e-05
1.82208e-05
1.67506e-05
1.58903e-05
1.5651e-05
1.57657e-05
1.59785e-05
1.61344e-05
1.61894e-05
1.61732e-05
1.61342e-05
1.6104e-05
1.60921e-05
1.60942e-05
1.61019e-05
1.61089e-05
1.61124e-05
1.61128e-05
1.61116e-05
1.61098e-05
1.61082e-05
1.61069e-05
1.61058e-05
1.6105e-05
1.61042e-05
1.61034e-05
1.61024e-05
1.61014e-05
1.61004e-05
1.60994e-05