/*--------------------------------*- C++ -*----------------------------------*\
| =========                 |                                                 |
| \\      /  F ield         | OpenFOAM: The Open Source CFD Toolbox           |
|  \\    /   O peration     | Version:  2312                                  |
|   \\  /    A nd           | Website:  www.openfoam.com                      |
|    \\/     M anipulation  |                                                 |
\*---------------------------------------------------------------------------*/
FoamFile
{
    version     2.0;
    format      ascii;
    arch        "LSB;label=32;scalar=64";
    class       volVectorField;
    location    "150";
    object      U;
}
// * * * * * * * * * * * * * * * * * * * * * * * * * * * * * * * * * * * * * //

dimensions      [0 1 -1 0 0 0 0];

internalField   nonuniform List<vector> 
11040
(
(1.80177 35.7835 5.07227e-19)
(10.4813 38.6099 -3.86177e-17)
(14.9421 29.9459 -4.39922e-17)
(13.6462 17.5075 3.74352e-18)
(8.67915 7.05873 0)
(3.27816 0.919836 1.17665e-17)
(0.579116 -1.88642 3.2732e-16)
(1.32568 -3.29783 8.63775e-16)
(1.97862 -3.22572 -3.21983e-16)
(2.78972 -2.71531 -2.96342e-16)
(4.40517 -1.71791 -3.54783e-16)
(6.30886 -0.772251 7.45821e-19)
(8.29481 -0.0465641 8.17885e-17)
(10.127 0.40146 6.1043e-17)
(11.6501 0.593961 1.89858e-19)
(12.8246 0.598845 3.04704e-18)
(13.6818 0.482247 -3.62141e-20)
(14.2719 0.290765 0)
(14.6351 0.0531745 1.10938e-20)
(14.8028 -0.210208 2.3948e-18)
(14.7682 -0.485251 -1.48027e-19)
(14.5297 -0.73062 -1.52767e-17)
(14.2217 -0.915321 7.52621e-19)
(13.918 -1.05286 -2.4146e-17)
(13.6014 -1.16551 2.19722e-17)
(13.2383 -1.26082 6.36446e-19)
(12.8266 -1.33909 1.89597e-17)
(12.3691 -1.40012 0)
(11.8644 -1.44377 0)
(11.3097 -1.4696 -1.44587e-17)
(10.6999 -1.47666 -2.74836e-17)
(10.03 -1.46386 0)
(9.29516 -1.42956 -4.30969e-17)
(8.48978 -1.37223 0)
(7.60806 -1.28972 -1.56334e-17)
(6.65775 -1.18075 -1.23547e-17)
(5.63859 -1.03974 0)
(4.61987 -0.881347 0)
(3.47356 -0.689581 -3.37272e-21)
(2.64321 -0.495578 4.11349e-21)
(-0.521597 -0.886496 6.51529e-18)
(10.6782 30.4655 -4.76278e-19)
(24.5126 31.3513 4.5072e-18)
(33.0848 29.2518 5.22544e-17)
(34.9642 25.8783 2.11167e-17)
(32.465 21.2055 0)
(27.8032 15.7309 3.1236e-17)
(22.7469 10.5134 4.07047e-17)
(18.7973 6.58722 -6.02099e-17)
(16.0136 4.05238 6.14099e-17)
(14.7487 2.7043 5.78883e-19)
(14.9764 2.21416 5.34659e-17)
(15.7199 2.0791 -7.91338e-17)
(16.5285 1.99862 -3.8081e-17)
(17.2819 1.85907 -2.61915e-17)
(17.9094 1.64217 1.03194e-17)
(18.3698 1.36855 6.21082e-18)
(18.6613 1.05855 8.41498e-18)
(18.8043 0.725376 -1.26861e-18)
(18.8158 0.378452 1.25595e-18)
(18.7036 0.0288052 -1.34899e-18)
(18.4458 -0.313038 4.13325e-18)
(18.0664 -0.608864 8.58341e-18)
(17.6279 -0.833814 -7.09791e-18)
(17.1928 -1.01401 -1.32547e-17)
(16.7617 -1.16852 -1.30821e-17)
(16.3096 -1.29832 1.22451e-17)
(15.831 -1.40467 0)
(15.3227 -1.48918 0)
(14.7798 -1.55276 9.03235e-18)
(14.1966 -1.59549 7.94126e-18)
(13.5667 -1.61691 7.6269e-18)
(12.8832 -1.61631 1.3084e-17)
(12.1392 -1.59232 1.13225e-17)
(11.3261 -1.54369 0)
(10.4343 -1.46861 -6.10307e-20)
(9.4639 -1.3662 6.01244e-18)
(8.40417 -1.23398 0)
(7.28917 -1.08104 0)
(6.01039 -0.886592 0)
(5.05373 -0.70028 0)
(2.8382 -0.761381 -5.80919e-18)
(12.7905 26.992 7.16199e-19)
(20.7143 29.7968 2.16176e-17)
(28.1416 29.3957 -2.10446e-17)
(33.7223 27.8539 -1.86141e-17)
(37.2428 25.6852 1.66525e-17)
(38.7223 22.6876 -1.5424e-18)
(38.409 19.0511 -2.08982e-17)
(36.9939 15.3024 -5.62209e-18)
(35.1744 11.8849 6.39182e-18)
(33.3745 9.0465 0)
(31.711 6.83619 0)
(30.2349 5.24301 4.59442e-17)
(28.963 4.12545 0)
(27.8905 3.28767 0)
(26.9825 2.59113 -9.53221e-18)
(26.2036 1.97557 -6.76777e-18)
(25.5288 1.41934 -2.16665e-18)
(24.9312 0.911197 -7.82175e-18)
(24.3751 0.442723 -3.6177e-18)
(23.805 0.0095674 1.80644e-18)
(23.1479 -0.39044 -6.00576e-18)
(22.4103 -0.729269 -2.7974e-18)
(21.6732 -0.987645 3.84031e-18)
(20.9786 -1.19482 9.10448e-18)
(20.3259 -1.37001 9.6135e-18)
(19.6835 -1.51603 -8.37502e-18)
(19.0416 -1.63532 0)
(18.3917 -1.72979 0)
(17.7243 -1.80028 -6.47416e-18)
(17.0304 -1.84698 5.86517e-18)
(16.3015 -1.8696 -1.04718e-17)
(15.5298 -1.86774 3.00301e-20)
(14.7084 -1.84037 0)
(13.8282 -1.7864 -6.77091e-18)
(12.8801 -1.70466 5.44085e-18)
(11.8638 -1.59476 6.42836e-20)
(10.7689 -1.45629 -4.36109e-20)
(9.62326 -1.29519 -1.45335e-18)
(8.31889 -1.10057 -1.61177e-21)
(7.27265 -0.916835 1.11239e-18)
(5.17766 -1.01064 1.94936e-18)
(14.6255 23.663 -8.11397e-19)
(20.3884 26.4395 -8.86018e-18)
(26.1704 26.9379 1.08165e-17)
(30.974 25.7686 1.24694e-17)
(34.8574 24.0095 -1.52769e-17)
(38.0672 22.0868 -1.90108e-17)
(40.5053 19.8577 3.65967e-18)
(41.9726 17.2217 0)
(42.4945 14.4303 0)
(42.3192 11.8235 1.65186e-17)
(41.7563 9.62339 0)
(41.0032 7.89599 -1.59642e-17)
(40.1654 6.55574 0)
(39.2721 5.45335 -1.39704e-17)
(38.2857 4.46855 0)
(37.1547 3.54442 6.39083e-18)
(35.8559 2.66703 8.97371e-18)
(34.4092 1.84125 1.35964e-20)
(32.8544 1.0754 2.80304e-18)
(31.2511 0.382639 1.22326e-18)
(29.6406 -0.228118 1.11587e-18)
(28.1292 -0.721624 4.39923e-18)
(26.8146 -1.08129 0)
(25.685 -1.35124 6.72215e-18)
(24.6927 -1.5649 9.22841e-19)
(23.7806 -1.73472 1.39247e-17)
(22.9118 -1.86836 -7.94171e-19)
(22.0637 -1.97092 5.53739e-18)
(21.2203 -2.04531 -5.03477e-18)
(20.3696 -2.09305 -9.06611e-18)
(19.5017 -2.11462 4.03084e-18)
(18.6073 -2.11005 -1.41591e-17)
(17.6782 -2.07854 -1.72669e-19)
(16.7035 -2.01902 1.4096e-19)
(15.6731 -1.93048 -5.49365e-20)
(14.5856 -1.8126 1.37701e-19)
(13.4315 -1.66657 -4.09261e-20)
(12.232 -1.49552 -4.69406e-20)
(10.8884 -1.30049 5.21145e-21)
(9.74777 -1.10471 -1.71933e-20)
(7.7164 -1.10619 0)
(16.5136 20.8765 0)
(20.4983 23.2484 -1.34178e-18)
(24.9944 24.3285 -1.7179e-17)
(29.2228 23.9671 -2.42083e-17)
(32.7028 22.6862 2.52614e-17)
(35.55 20.9887 -1.08271e-17)
(37.9673 19.037 0)
(39.898 16.835 0)
(41.1736 14.4859 -1.25814e-17)
(41.7507 12.1833 -2.65174e-17)
(41.7522 10.1041 -1.28855e-17)
(41.3846 8.35395 0)
(40.8634 6.93829 0)
(40.3377 5.78064 1.44419e-17)
(39.8562 4.78446 -2.81635e-18)
(39.3958 3.88355 1.02709e-17)
(38.9058 3.04461 -4.92696e-18)
(38.3327 2.25234 0)
(37.6244 1.49798 0)
(36.7343 0.781589 0)
(35.6121 0.106887 -1.86687e-18)
(34.3093 -0.483058 -3.44963e-18)
(32.9477 -0.949577 0)
(31.5914 -1.31813 6.03973e-18)
(30.2765 -1.61473 -1.05445e-17)
(29.0129 -1.85111 -6.51169e-18)
(27.8035 -2.03564 -3.59077e-18)
(26.6483 -2.17563 -4.98062e-18)
(25.5396 -2.27647 4.00064e-18)
(24.4648 -2.34164 7.20139e-18)
(23.409 -2.37317 0)
(22.3563 -2.37219 5.75304e-18)
(21.292 -2.33892 -1.63885e-19)
(20.1992 -2.27305 -3.49313e-20)
(19.0641 -2.17457 0)
(17.8827 -2.0441 -2.37722e-18)
(16.6456 -1.88485 0)
(15.3673 -1.69886 8.49097e-19)
(13.9606 -1.49567 0)
(12.7194 -1.28454 -3.8571e-20)
(10.6931 -1.17502 9.98178e-19)
(18.0228 18.5605 0)
(20.8755 20.4521 0)
(24.1595 21.7727 5.50475e-18)
(27.6206 22.1474 1.21318e-17)
(30.8289 21.593 -2.22495e-17)
(33.5586 20.356 1.79411e-17)
(35.8161 18.6691 -8.8207e-18)
(37.614 16.676 1.44338e-17)
(38.8917 14.5079 5.84087e-19)
(39.6045 12.3339 1.62866e-17)
(39.8054 10.322 1.08642e-17)
(39.6341 8.5845 0)
(39.2611 7.14926 -4.84326e-18)
(38.827 5.96631 9.55978e-18)
(38.4034 4.95191 -1.81156e-17)
(38.0034 4.03989 -4.29417e-18)
(37.6157 3.19474 -4.01566e-18)
(37.2273 2.40122 4.02498e-18)
(36.8271 1.65126 -8.51274e-20)
(36.4012 0.943083 -2.36644e-19)
(35.9265 0.276876 -9.83924e-19)
(35.3877 -0.313776 1.42762e-18)
(34.7888 -0.796787 0)
(34.1342 -1.19354 1.20097e-18)
(33.425 -1.52688 6.94037e-18)
(32.6549 -1.80659 -1.10828e-18)
(31.8204 -2.0378 2.95937e-18)
(30.9234 -2.22442 9.10154e-20)
(29.968 -2.36911 8.40397e-19)
(28.9585 -2.47327 -2.85227e-18)
(27.8992 -2.5376 2.94122e-19)
(26.7934 -2.5626 -2.96907e-19)
(25.6442 -2.54846 0)
(24.4486 -2.49527 3.29348e-18)
(23.2042 -2.40357 -2.458e-19)
(21.9145 -2.27451 1.99484e-20)
(20.5761 -2.11247 1.41314e-18)
(19.1998 -1.91905 -2.48856e-20)
(17.7099 -1.7082 -7.21963e-21)
(16.3643 -1.48061 -4.0424e-19)
(14.3059 -1.29737 -7.23747e-19)
(19.3236 16.6152 7.43112e-20)
(21.4534 18.0785 -8.44097e-19)
(23.8705 19.3006 2.17565e-18)
(26.5849 19.9611 0)
(29.3558 19.9122 0)
(31.923 19.2199 -7.45796e-18)
(34.1536 18.0202 7.84596e-18)
(35.9843 16.4321 -1.52705e-17)
(37.3538 14.578 -8.00668e-18)
(38.2207 12.6189 8.13595e-18)
(38.6119 10.7242 -7.9695e-18)
(38.6266 9.01589 7.97927e-18)
(38.3984 7.54717 -8.13098e-18)
(38.051 6.3054 3.50052e-19)
(37.6633 5.23606 1.4635e-17)
(37.2644 4.28345 -2.82896e-19)
(36.8541 3.41089 6.67164e-18)
(36.4247 2.59973 -3.12597e-18)
(35.9716 1.84008 6.22018e-18)
(35.4927 1.12766 -1.42234e-18)
(34.9881 0.461871 -6.74251e-19)
(34.478 -0.1269 1.23823e-18)
(33.98 -0.613481 2.30549e-18)
(33.4983 -1.01691 0)
(33.0356 -1.35832 1.89483e-18)
(32.5835 -1.64956 -1.89728e-18)
(32.131 -1.89655 7.87147e-19)
(31.6671 -2.10325 2.19288e-18)
(31.1804 -2.27224 0)
(30.6579 -2.4045 -2.37643e-18)
(30.0863 -2.49993 -1.6017e-18)
(29.4511 -2.5576 -2.29599e-18)
(28.7389 -2.576 1.53889e-18)
(27.9339 -2.55367 2.55054e-18)
(27.0221 -2.48962 2.04278e-18)
(25.9976 -2.38378 -1.47577e-18)
(24.8533 -2.23986 -1.10144e-18)
(23.5977 -2.05927 -6.48279e-19)
(22.1689 -1.85994 -2.4674e-19)
(20.8073 -1.629 0)
(18.7626 -1.45643 -4.29608e-19)
(20.4212 14.9626 -3.54328e-20)
(22.0716 16.085 6.40593e-19)
(23.8831 17.11 -1.80647e-18)
(25.947 17.8452 -3.15958e-18)
(28.187 18.117 -7.76571e-18)
(30.4251 17.8681 7.50105e-18)
(32.5118 17.1354 1.45618e-17)
(34.3406 15.9884 1.21458e-17)
(35.8227 14.5189 3.44343e-19)
(36.889 12.8543 -1.23552e-17)
(37.524 11.1441 1.90199e-17)
(37.7805 9.51446 0)
(37.7558 8.04578 -1.85508e-17)
(37.556 6.76424 1.239e-17)
(37.2639 5.64806 5.71983e-18)
(36.9243 4.65703 -1.70553e-17)
(36.5512 3.75633 -5.49241e-18)
(36.1439 2.92442 2.55468e-18)
(35.6988 2.14939 2.43369e-18)
(35.2127 1.42534 5.68286e-18)
(34.6824 0.750948 -8.72736e-18)
(34.131 0.153793 2.26063e-18)
(33.5847 -0.345134 1.96075e-18)
(33.0512 -0.761726 0)
(32.5386 -1.11323 1.63838e-18)
(32.0476 -1.41224 -1.45228e-18)
(31.576 -1.666 1.45736e-18)
(31.1223 -1.87933 -2.01376e-20)
(30.6855 -2.05565 -2.26985e-18)
(30.2638 -2.19684 -4.69408e-19)
(29.8544 -2.30366 4.46934e-18)
(29.4527 -2.37595 1.13011e-18)
(29.0516 -2.41261 -1.00685e-18)
(28.6395 -2.41225 -2.20606e-18)
(28.1995 -2.37335 -1.88559e-19)
(27.7127 -2.29466 -6.96885e-20)
(27.1493 -2.17811 0)
(26.4919 -2.02183 -8.15319e-20)
(25.6493 -1.84826 1.80232e-19)
(24.7818 -1.62077 2.96749e-21)
(23.2899 -1.50476 3.17742e-19)
(21.3584 13.536 3.05967e-20)
(22.6764 14.3946 0)
(24.0731 15.2106 -1.54539e-18)
(25.6439 15.8801 0)
(27.3968 16.2741 8.66042e-20)
(29.2461 16.3015 -1.74285e-18)
(31.0769 15.9343 -8.52204e-18)
(32.7823 15.19 0)
(34.267 14.1157 9.86056e-19)
(35.4487 12.7952 -1.85302e-17)
(36.279 11.3433 -5.29444e-18)
(36.7653 9.87375 1.43078e-17)
(36.9612 8.47722 5.01666e-18)
(36.9434 7.20656 -4.58879e-18)
(36.7868 6.07087 4.49382e-18)
(36.5442 5.05227 4.56808e-18)
(36.2428 4.12619 8.4368e-18)
(35.8925 3.27341 -1.03838e-17)
(35.4952 2.48193 2.05672e-18)
(35.0506 1.74529 0)
(34.5566 1.06169 4.34144e-19)
(34.0351 0.456176 -8.3573e-19)
(33.5098 -0.0536807 6.48561e-19)
(32.9864 -0.482158 -2.34668e-19)
(32.4728 -0.843401 4.0235e-18)
(31.9711 -1.14954 -2.59268e-18)
(31.4803 -1.40847 0)
(30.9995 -1.62548 9.67722e-19)
(30.5285 -1.80451 1.79008e-18)
(30.068 -1.94823 7.99213e-19)
(29.619 -2.05805 -2.19802e-18)
(29.1837 -2.1347 6.99842e-19)
(28.7652 -2.17814 0)
(28.3664 -2.18776 9.4486e-19)
(27.9899 -2.16262 -1.49592e-18)
(27.6399 -2.10125 6.67471e-20)
(27.3088 -2.0053 -1.27178e-19)
(26.9977 -1.86942 1.09358e-18)
(26.6443 -1.71698 2.66261e-20)
(26.3186 -1.49824 0)
(25.6978 -1.38983 1.17546e-19)
(22.1554 12.291 -1.28512e-20)
(23.2311 12.9474 1.34836e-20)
(24.3373 13.5811 3.17401e-19)
(25.55 14.1386 2.48277e-18)
(26.9043 14.5406 9.98028e-19)
(28.3749 14.7101 -3.49177e-18)
(29.899 14.5951 0)
(31.3955 14.1742 1.16692e-17)
(32.781 13.4571 -1.85307e-17)
(33.9743 12.4843 6.81942e-18)
(34.9125 11.3304 -6.69516e-18)
(35.571 10.0819 -1.1269e-17)
(35.9632 8.82227 1.47059e-17)
(36.1307 7.61648 -1.08046e-17)
(36.1285 6.49807 1.41427e-17)
(36.006 5.47328 -3.74342e-18)
(35.7972 4.5334 -3.49659e-18)
(35.5208 3.66631 0)
(35.1856 2.86228 0)
(34.7957 2.11516 0)
(34.3522 1.42287 5.09884e-18)
(33.8777 0.80906 -5.51049e-18)
(33.3944 0.288788 6.33308e-19)
(32.907 -0.15196 0)
(32.423 -0.524859 0)
(31.9461 -0.840848 -9.31329e-19)
(31.4765 -1.10791 1.93944e-18)
(31.0134 -1.33151 -1.7069e-18)
(30.5566 -1.51567 1.53003e-18)
(30.1058 -1.66328 -1.37858e-18)
(29.661 -1.77629 5.78596e-19)
(29.2226 -1.85591 -1.66185e-18)
(28.7922 -1.90291 -9.40017e-19)
(28.3712 -1.91775 1.39146e-20)
(27.963 -1.90085 -6.64488e-19)
(27.575 -1.85198 5.95809e-19)
(27.212 -1.77355 -9.38931e-19)
(26.8847 -1.66091 -5.12315e-19)
(26.5839 -1.52952 1.4569e-20)
(26.3345 -1.34294 -1.43703e-20)
(26.0828 -1.19927 -9.91087e-20)
(22.8312 11.195 0)
(23.7237 11.6959 6.10213e-19)
(24.6199 12.1806 3.67618e-19)
(25.5754 12.622 3.2234e-18)
(26.627 12.9745 -6.02135e-18)
(27.7775 13.1862 4.53416e-18)
(29.002 13.2097 2.98169e-18)
(30.2537 13.0104 -4.52716e-18)
(31.4718 12.5729 1.35314e-17)
(32.5895 11.9073 1.01994e-17)
(33.5445 11.0504 5.80156e-18)
(34.2972 10.0562 0)
(34.8336 8.98818 0)
(35.1632 7.90752 1.11305e-17)
(35.3151 6.85896 -1.40625e-17)
(35.3252 5.8667 -2.84156e-18)
(35.2252 4.93842 7.90673e-18)
(35.0376 4.07285 -1.81219e-17)
(34.7767 3.26602 2.67214e-18)
(34.451 2.51446 3.46535e-18)
(34.0649 1.8172 -3.54472e-18)
(33.6414 1.19755 4.11707e-18)
(33.2029 0.669203 -4.15823e-18)
(32.7545 0.218211 4.63443e-19)
(32.304 -0.165263 8.65835e-19)
(31.8561 -0.490723 -3.94779e-18)
(31.413 -0.765882 2.65188e-19)
(30.9753 -0.996357 2.0772e-19)
(30.5431 -1.18634 5.46269e-20)
(30.1169 -1.33896 1.13832e-18)
(29.6969 -1.45647 1.00875e-18)
(29.2835 -1.54045 8.9468e-19)
(28.8774 -1.59205 7.76773e-19)
(28.479 -1.61218 -1.6421e-18)
(28.0892 -1.60169 8.5656e-19)
(27.7114 -1.56123 4.43393e-19)
(27.3484 -1.49324 1.05786e-18)
(27.0027 -1.39657 0)
(26.6765 -1.27847 4.15845e-19)
(26.3779 -1.12525 -2.13152e-20)
(26.1204 -0.967427 3.95245e-21)
(23.401 10.2254 0)
(24.1503 10.6064 -2.00955e-20)
(24.8889 10.9732 0)
(25.6566 11.3125 0)
(26.484 11.5985 -1.46666e-18)
(27.3829 11.7999 0)
(28.3487 11.8828 -6.46809e-18)
(29.36 11.8152 0)
(30.3811 11.5735 -2.0281e-17)
(31.3647 11.1485 2.72538e-17)
(32.2604 10.5517 -5.72252e-18)
(33.0275 9.80905 -1.91326e-17)
(33.6391 8.95943 -8.34979e-18)
(34.0835 8.04891 -1.50185e-19)
(34.3662 7.11982 1.23535e-17)
(34.5047 6.20403 -8.29654e-18)
(34.5209 5.32116 1.24376e-17)
(34.4346 4.48105 1.58015e-19)
(34.2614 3.68778 -5.61319e-18)
(34.0124 2.94282 8.62768e-18)
(33.6949 2.24797 -4.9359e-20)
(33.3315 1.62742 -4.12271e-19)
(32.9447 1.09485 -6.18221e-18)
(32.5413 0.636896 5.85007e-18)
(32.1294 0.245091 1.64753e-18)
(31.7152 -0.0886819 -2.72525e-18)
(31.302 -0.371535 0)
(30.8918 -0.60902 3.80765e-18)
(30.4859 -0.805428 -4.07511e-18)
(30.0852 -0.964071 1.91885e-19)
(29.6906 -1.0875 9.2037e-19)
(29.3032 -1.17764 -7.36449e-19)
(28.9241 -1.236 0)
(28.5537 -1.2639 5.56853e-19)
(28.1932 -1.26242 4.63463e-20)
(27.8452 -1.23255 2.57152e-19)
(27.5117 -1.17613 -6.07777e-19)
(27.1927 -1.0937 1.4312e-19)
(26.8888 -0.988401 -3.69432e-19)
(26.6054 -0.857366 3.84663e-20)
(26.3424 -0.713557 0)
(23.878 9.36518 3.2407e-20)
(24.5125 9.65326 -1.02172e-19)
(25.1291 9.92791 0)
(25.7561 10.183 0)
(26.4174 10.4039 1.61149e-18)
(27.1255 10.5725 2.12961e-18)
(27.8842 10.6671 1.24799e-17)
(28.6865 10.6639 -3.2252e-18)
(29.5148 10.5413 0)
(30.3409 10.2839 -2.70411e-18)
(31.1292 9.88813 1.10198e-18)
(31.8467 9.36179 3.19737e-18)
(32.4656 8.72316 0)
(32.9647 8.00006 1.53744e-17)
(33.3344 7.22397 -1.2815e-17)
(33.5762 6.42437 1.25707e-17)
(33.699 5.62494 -1.41973e-17)
(33.715 4.84254 -1.31317e-18)
(33.6363 4.08823 0)
(33.4736 3.3691 0)
(33.235 2.69081 -7.21567e-19)
(32.9415 2.07948 3.42859e-19)
(32.615 1.55009 3.06259e-19)
(32.2645 1.09093 0)
(31.899 0.695083 -4.60125e-18)
(31.5256 0.355842 -4.33743e-18)
(31.1488 0.0670493 3.72456e-18)
(30.7719 -0.176459 -4.19281e-18)
(30.397 -0.378879 0)
(30.026 -0.543598 6.8472e-19)
(29.6602 -0.673363 -2.70953e-18)
(29.3011 -0.770412 3.64109e-18)
(28.95 -0.836592 -6.06867e-19)
(28.6078 -0.87365 0)
(28.2757 -0.882963 3.89288e-19)
(27.9562 -0.865857 -2.26081e-20)
(27.6516 -0.824054 2.77374e-19)
(27.3618 -0.758767 0)
(27.0878 -0.67218 8.09335e-20)
(26.8343 -0.563898 -1.09949e-19)
(26.5984 -0.445198 2.93214e-20)
(24.2743 8.60127 -3.44397e-20)
(24.8147 8.81724 6.6957e-21)
(25.3339 9.02032 0)
(25.8526 9.20844 -8.01433e-19)
(26.3887 9.37308 -1.35341e-18)
(26.9532 9.50382 -1.78756e-18)
(27.552 9.58759 -2.24527e-18)
(28.1849 9.60864 -2.72105e-18)
(28.8448 9.55045 1.21441e-17)
(29.5166 9.39848 1.66135e-18)
(30.1787 9.14388 -1.29874e-17)
(30.8082 8.78427 2.0373e-17)
(31.3825 8.32496 1.17004e-18)
(31.8803 7.77901 -1.98387e-17)
(32.2859 7.16508 -2.50665e-18)
(32.591 6.50454 0)
(32.7937 5.81816 -2.19006e-18)
(32.8975 5.12398 4.66212e-18)
(32.9081 4.43651 -1.11867e-17)
(32.8329 3.76689 2.7031e-19)
(32.6781 3.12436 8.74547e-18)
(32.4612 2.53701 7.03911e-18)
(32.2023 2.02195 -6.84276e-19)
(31.9122 1.57035 -7.45365e-18)
(31.6007 1.17726 0)
(31.2756 0.83763 0)
(30.9426 0.546472 0)
(30.6057 0.299314 0)
(30.2682 0.0922974 0)
(29.9325 -0.0778635 6.11995e-19)
(29.6005 -0.213965 2.70724e-19)
(29.2742 -0.318413 -1.92994e-18)
(28.9551 -0.393284 9.37006e-19)
(28.6442 -0.440638 -3.4612e-19)
(28.3428 -0.462119 1.04492e-18)
(28.0533 -0.459307 -1.49631e-18)
(27.7777 -0.434017 3.19248e-19)
(27.5158 -0.387923 2.08612e-19)
(27.2689 -0.323106 -3.05242e-19)
(27.0406 -0.239858 -8.02941e-20)
(26.8298 -0.148156 1.26107e-19)
(24.6007 7.92333 0)
(25.0624 8.08324 -5.26525e-19)
(25.5024 8.23094 1.25141e-18)
(25.9355 8.36671 6.73816e-19)
(26.3753 8.48534 -1.61044e-18)
(26.8308 8.58085 2.06706e-18)
(27.3076 8.64552 -8.58096e-18)
(27.8081 8.66935 3.00221e-18)
(28.3302 8.64101 -8.26662e-18)
(28.8669 8.5492 8.25787e-18)
(29.406 8.38496 2.80443e-18)
(29.9335 8.14255 -2.3529e-17)
(30.4341 7.82031 1.0541e-17)
(30.8905 7.42218 2.14859e-18)
(31.2875 6.95687 1.28577e-17)
(31.6132 6.43677 0)
(31.86 5.87639 1.86263e-18)
(32.0245 5.29055 -3.45568e-18)
(32.1067 4.69314 1.82687e-18)
(32.1088 4.09638 0)
(32.0338 3.51123 0)
(31.8939 2.96633 -5.31854e-18)
(31.7056 2.48059 6.88201e-18)
(31.4805 2.04874 1.56686e-19)
(31.2286 1.66826 0)
(30.9579 1.33598 -4.97497e-18)
(30.6748 1.04836 9.64917e-18)
(30.3841 0.801925 -4.66238e-18)
(30.0898 0.593416 2.12941e-18)
(29.7948 0.419893 -2.00452e-18)
(29.5017 0.278708 -2.24093e-19)
(29.2126 0.167471 1.93654e-18)
(28.9294 0.0840315 -3.34448e-19)
(28.6532 0.026167 -1.70506e-18)
(28.3855 -0.00792478 -5.48608e-19)
(28.1282 -0.0199483 1.03042e-18)
(27.8833 -0.0117588 -4.81793e-19)
(27.6505 0.0146852 3.67578e-19)
(27.4308 0.0573945 -2.42645e-20)
(27.2269 0.115725 2.15001e-19)
(27.0383 0.181263 -1.69121e-19)
(24.8663 7.32265 -6.4443e-20)
(25.2616 7.43894 6.36772e-20)
(25.6359 7.54407 -1.16005e-18)
(26 7.63954 0)
(26.3643 7.7219 1.35085e-18)
(26.7357 7.78772 -1.73273e-18)
(27.1192 7.83245 3.90959e-18)
(27.5177 7.84985 2.5417e-18)
(27.9312 7.83249 0)
(28.3568 7.77242 0)
(28.788 7.66245 1.58528e-17)
(29.2171 7.4968 -1.46711e-17)
(29.6346 7.27162 0)
(30.0285 6.98611 -4.49504e-18)
(30.3869 6.64295 -1.90759e-17)
(30.6986 6.24794 1.66203e-17)
(30.9546 5.80935 -9.94785e-18)
(31.1484 5.33713 1.11992e-17)
(31.2759 4.84194 0)
(31.3355 4.3344 0)
(31.3267 3.82488 0)
(31.2556 3.34023 0)
(31.1345 2.89977 8.29361e-18)
(30.9738 2.5016 -9.19253e-18)
(30.7831 2.14557 0)
(30.5699 1.83049 0)
(30.3407 1.55437 3.59613e-18)
(30.1007 1.31493 -3.60651e-18)
(29.8541 1.10978 -3.2477e-18)
(29.6042 0.936527 3.09695e-18)
(29.3541 0.792896 8.50957e-20)
(29.1059 0.676709 0)
(28.8619 0.585923 -1.48946e-19)
(28.6232 0.518338 1.01872e-18)
(28.3914 0.472141 -9.81728e-20)
(28.1682 0.445652 -8.07759e-19)
(27.9553 0.437096 0)
(27.7525 0.444407 0)
(27.5606 0.465793 -2.98693e-19)
(27.3815 0.500483 1.56106e-19)
(27.2149 0.541729 0)
(25.0795 6.79066 2.23988e-20)
(25.4181 6.87313 0)
(25.7369 6.94591 4.6215e-19)
(26.0442 7.01093 -1.25655e-18)
(26.3477 7.06561 -4.0299e-18)
(26.6529 7.10795 1.93045e-18)
(26.9642 7.13532 -2.74422e-18)
(27.2839 7.14376 0)
(27.613 7.12843 0)
(27.9504 7.08399 1.07079e-17)
(28.2929 7.00524 -1.22301e-17)
(28.6363 6.88753 9.12842e-19)
(28.975 6.72702 9.06747e-18)
(29.3016 6.52143 -9.92134e-18)
(29.6077 6.27044 -1.47505e-18)
(29.8846 5.97594 1.88586e-18)
(30.1244 5.64197 -1.25478e-17)
(30.3202 5.27417 2.82667e-17)
(30.4666 4.8795 -1.41494e-17)
(30.5597 4.46574 -1.25647e-17)
(30.5968 4.04112 1.41112e-17)
(30.5793 3.62867 0)
(30.5148 3.24627 -7.85859e-19)
(30.4118 2.89439 0)
(30.2783 2.57466 -6.08224e-18)
(30.121 2.28747 1.22204e-17)
(29.9457 2.03224 1.12718e-17)
(29.7574 1.80785 -5.48142e-18)
(29.5602 1.61279 0)
(29.3577 1.44541 -2.22745e-18)
(29.1527 1.30392 2.19237e-18)
(28.9477 1.18655 0)
(28.7448 1.09154 0)
(28.5454 1.01687 -2.63433e-20)
(28.3508 0.960916 0)
(28.1628 0.922144 -1.34544e-19)
(27.9827 0.898994 0)
(27.8104 0.889456 0)
(27.6466 0.892032 1.29192e-19)
(27.4927 0.905919 -6.46533e-22)
(27.3487 0.926127 -1.68742e-19)
(25.2422 6.34168 -1.74539e-19)
(25.5339 6.39933 1.37297e-18)
(25.8074 6.44887 -1.05005e-18)
(26.069 6.49209 1.11827e-18)
(26.3248 6.52688 -1.30901e-18)
(26.5791 6.55214 9.48413e-18)
(26.8356 6.56629 2.50957e-18)
(27.0962 6.56675 -1.94664e-17)
(27.3621 6.55029 1.17606e-18)
(27.6331 6.51327 8.70745e-18)
(27.9073 6.45205 1.95415e-18)
(28.1825 6.36319 -3.9595e-18)
(28.4557 6.24356 3.99091e-19)
(28.722 6.09081 0)
(28.9759 5.90367 -8.95846e-19)
(29.2113 5.68221 -1.19019e-18)
(29.4221 5.42796 -1.24531e-17)
(29.6024 5.14391 2.33518e-17)
(29.7469 4.83421 -1.10795e-17)
(29.8517 4.504 -1.54208e-18)
(29.9129 4.15917 -1.11393e-17)
(29.9292 3.8182 1.04184e-17)
(29.9046 3.4964 7.28788e-19)
(29.8456 3.19544 0)
(29.7582 2.91779 0)
(29.6478 2.66479 -3.24332e-19)
(29.5194 2.43682 2.75009e-19)
(29.3773 2.2336 0)
(29.2253 2.05441 0)
(29.0666 1.89821 -1.17962e-19)
(28.9038 1.76375 0)
(28.7395 1.64969 -1.67902e-18)
(28.5755 1.55465 1.72389e-18)
(28.4132 1.47692 2.41072e-20)
(28.2539 1.41513 2.12658e-20)
(28.0992 1.36801 6.60617e-19)
(27.9502 1.33426 -6.2013e-19)
(27.8069 1.31208 0)
(27.6698 1.30028 1.56012e-20)
(27.5401 1.29808 0)
(27.418 1.30209 5.05516e-20)
(25.3612 5.9794 2.4155e-21)
(25.6158 6.01945 -1.48095e-19)
(25.8537 6.05267 -1.4206e-18)
(26.0798 6.08055 4.18435e-18)
(26.299 6.10127 -7.79138e-19)
(26.5149 6.1143 4.73967e-18)
(26.7305 6.1187 -6.08772e-18)
(26.9477 6.11268 8.24376e-18)
(27.1672 6.09399 -1.32974e-18)
(27.3894 6.0601 -8.06758e-18)
(27.6131 6.00846 -1.16378e-17)
(27.8372 5.93657 1.33576e-17)
(28.0596 5.84206 1.82977e-18)
(28.2774 5.72298 1.66771e-18)
(28.487 5.57797 1.6097e-17)
(28.684 5.40652 1.94564e-18)
(28.8639 5.20903 -1.65687e-17)
(29.0224 4.98692 -1.20726e-18)
(29.1549 4.74258 -9.06906e-18)
(29.2578 4.47932 1.81201e-17)
(29.3275 4.20111 -9.02596e-18)
(29.3612 3.92234 6.09097e-19)
(29.361 3.65552 0)
(29.3315 3.40263 0)
(29.277 3.1663 4.91821e-19)
(29.2017 2.94825 3.97028e-18)
(29.1098 2.74933 -3.69891e-18)
(29.0046 2.56979 -4.07663e-18)
(28.8894 2.40941 7.08487e-18)
(28.7671 2.26762 -3.33858e-18)
(28.6399 2.14363 -1.90315e-19)
(28.5101 2.03647 2.91814e-18)
(28.3794 1.94511 -4.3257e-18)
(28.249 1.86818 2.72969e-18)
(28.1202 1.80459 -9.92325e-20)
(27.9943 1.75333 -2.31496e-18)
(27.8722 1.71339 1.63875e-18)
(27.7541 1.68319 -5.49582e-19)
(27.6406 1.66186 2.10127e-19)
(27.5323 1.64863 -2.10247e-19)
(27.4297 1.64145 0)
(25.4501 5.68251 -2.14627e-21)
(25.6747 5.70976 -7.25056e-19)
(25.8839 5.73126 7.30832e-19)
(26.0817 5.74815 3.74875e-18)
(26.272 5.75886 -3.19836e-18)
(26.458 5.76318 3.93521e-18)
(26.6423 5.76057 -4.91468e-18)
(26.8262 5.74976 0)
(27.0108 5.72913 1.6653e-18)
(27.1963 5.69688 6.50753e-18)
(27.382 5.65115 -1.77041e-17)
(27.5672 5.59016 1.15956e-17)
(27.7506 5.51213 -9.73262e-18)
(27.9303 5.41555 -2.31656e-18)
(28.1038 5.29928 9.4556e-19)
(28.268 5.16267 2.71594e-17)
(28.4198 5.00569 -1.15805e-17)
(28.5559 4.829 0)
(28.6727 4.63397 -1.67375e-18)
(28.7672 4.42268 8.52328e-19)
(28.8364 4.19782 0)
(28.8773 3.97044 0)
(28.8906 3.75053 0)
(28.8796 3.53994 -8.29993e-19)
(28.8475 3.34109 -4.64003e-19)
(28.7975 3.1557 -3.94528e-19)
(28.7326 2.98479 3.8201e-19)
(28.6557 2.82887 -2.64012e-18)
(28.5695 2.688 3.04352e-18)
(28.4762 2.56193 3.38995e-19)
(28.3779 2.45019 -1.45057e-19)
(28.2764 2.3521 -2.3603e-18)
(28.1732 2.26692 4.88484e-18)
(28.0694 2.1936 -2.44487e-18)
(27.9662 2.13129 0)
(27.8646 2.07921 -9.9599e-19)
(27.7654 2.03661 1.46008e-18)
(27.6689 2.00215 -4.369e-19)
(27.5754 1.97518 2.05796e-19)
(27.4858 1.95501 -2.17294e-19)
(27.4002 1.94055 0)
(25.5178 5.43473 1.54444e-19)
(25.7175 5.45254 -7.27764e-19)
(25.9029 5.46551 6.11689e-19)
(26.0774 5.47447 -2.26227e-18)
(26.2442 5.47796 0)
(26.4062 5.47605 1.92386e-18)
(26.5656 5.46845 0)
(26.7235 5.45422 -2.96162e-18)
(26.8809 5.43215 9.91605e-18)
(27.0378 5.40093 -2.86743e-18)
(27.1941 5.35921 5.77054e-18)
(27.3492 5.30568 -9.62114e-18)
(27.5022 5.23904 -1.14902e-18)
(27.6519 5.15816 -9.41943e-18)
(27.7963 5.06213 1.05854e-17)
(27.9335 4.9504 -1.92732e-19)
(28.061 4.8228 -1.4624e-18)
(28.1765 4.67965 -1.30634e-18)
(28.2774 4.52176 1.56156e-18)
(28.3611 4.35047 -7.95797e-19)
(28.4254 4.1676 0)
(28.4674 3.98166 0)
(28.4872 3.80055 0)
(28.4873 3.6258 1.46513e-18)
(28.4698 3.4595 -6.29917e-18)
(28.4373 3.30317 5.97176e-18)
(28.392 3.15781 4.9401e-18)
(28.3363 3.02399 -5.27598e-18)
(28.2722 2.90193 0)
(28.2015 2.79156 2.03905e-18)
(28.126 2.6926 -4.29878e-18)
(28.0472 2.60461 1.83862e-18)
(27.9662 2.52706 -2.04895e-18)
(27.8842 2.45915 2.03986e-18)
(27.8021 2.40023 -2.27629e-19)
(27.7206 2.34973 8.75657e-19)
(27.6406 2.30708 -9.74711e-19)
(27.5622 2.27119 0)
(27.4859 2.24158 0)
(27.4123 2.21762 8.76619e-20)
(27.3415 2.19894 -8.30808e-20)
(25.5701 5.22484 -2.79969e-20)
(25.7486 5.23561 6.79606e-19)
(25.914 5.24231 1.67684e-18)
(26.069 5.24544 -2.73719e-18)
(26.2164 5.24371 2.15829e-18)
(26.3587 5.23734 0)
(26.4977 5.2262 0)
(26.6347 5.2096 -2.36312e-19)
(26.7703 5.18662 7.6235e-18)
(26.9047 5.15629 -1.93311e-17)
(27.0377 5.11761 5.73204e-18)
(27.169 5.06962 5.08928e-18)
(27.298 5.01137 4.74045e-19)
(27.4236 4.94202 -1.64883e-17)
(27.5448 4.8609 -1.48873e-18)
(27.6598 4.76757 -1.51446e-18)
(27.767 4.66187 1.73071e-17)
(27.8646 4.54397 1.52051e-18)
(27.9507 4.41438 -1.01971e-17)
(28.0235 4.27402 1.10736e-18)
(28.081 4.12412 -1.07187e-17)
(28.1208 3.97131 9.57987e-18)
(28.143 3.8218 5.90706e-18)
(28.1491 3.67679 -5.40169e-18)
(28.141 3.53799 6.27244e-19)
(28.1203 3.40669 4.52231e-18)
(28.089 3.28378 -4.50156e-18)
(28.0487 3.16979 0)
(28.0011 3.06499 4.74053e-18)
(27.9477 2.9694 1.98475e-18)
(27.8899 2.88287 -1.97637e-18)
(27.8288 2.8051 2.4607e-19)
(27.7656 2.73572 -2.13453e-19)
(27.701 2.67414 1.67558e-18)
(27.6358 2.61985 -1.65037e-18)
(27.5708 2.57243 9.50002e-19)
(27.5065 2.53148 -6.628e-19)
(27.4432 2.49609 1.70789e-19)
(27.3812 2.46594 1.65979e-19)
(27.321 2.44045 -3.31651e-19)
(27.2628 2.41973 3.73422e-21)
(25.611 5.04494 1.89006e-19)
(25.7713 5.05041 -3.49042e-19)
(25.9195 5.05248 -5.62614e-19)
(26.0579 5.05132 0)
(26.1889 5.04579 -1.90081e-18)
(26.3147 5.03624 -5.29122e-18)
(26.437 5.02265 8.84928e-18)
(26.5567 5.00447 -1.3646e-17)
(26.6745 4.98103 1.73452e-17)
(26.7906 4.95159 -5.89524e-18)
(26.9048 4.9154 -8.60097e-18)
(27.017 4.87177 6.22216e-19)
(27.1266 4.81998 9.50591e-18)
(27.233 4.75943 7.78888e-18)
(27.3353 4.68965 -6.2056e-18)
(27.4322 4.6103 1.58301e-18)
(27.5225 4.52128 0)
(27.605 4.4227 -7.38649e-18)
(27.6781 4.31492 7.50339e-18)
(27.7406 4.1986 -1.02969e-18)
(27.7909 4.07461 8.81515e-18)
(27.8272 3.94816 -8.6785e-18)
(27.8493 3.82414 -1.04796e-18)
(27.8584 3.70349 0)
(27.8559 3.58755 0)
(27.8432 3.47736 3.27561e-18)
(27.8215 3.37366 -3.26948e-18)
(27.7924 3.27693 3.53371e-18)
(27.757 3.18743 3.05615e-18)
(27.7167 3.1052 -3.31803e-18)
(27.6723 3.03018 1.70193e-18)
(27.6251 2.96216 3.13896e-18)
(27.5757 2.90088 -1.33801e-18)
(27.5249 2.84587 0)
(27.4733 2.79678 1.588e-20)
(27.4214 2.75328 -1.7493e-19)
(27.3699 2.71508 1.5415e-19)
(27.3189 2.68144 -1.59604e-19)
(27.2686 2.65215 1.523e-19)
(27.2196 2.62669 6.34055e-20)
(27.1719 2.60546 1.99715e-19)
(25.6432 4.88919 0)
(25.7878 4.8907 2.50406e-19)
(25.921 4.88933 0)
(26.0451 4.88501 0)
(26.1621 4.87673 5.35648e-18)
(26.2739 4.86494 -3.71862e-18)
(26.382 4.84967 2.53265e-18)
(26.4874 4.83052 -4.11466e-18)
(26.5904 4.80697 3.00203e-18)
(26.6914 4.77847 0)
(26.7903 4.74445 0)
(26.8868 4.70441 0)
(26.9807 4.65782 1.06938e-17)
(27.0714 4.60426 -1.96336e-17)
(27.1582 4.54338 1.01482e-17)
(27.2403 4.47498 -1.4686e-18)
(27.3167 4.39899 0)
(27.3865 4.31551 0)
(27.4485 4.22482 8.17371e-19)
(27.5018 4.12742 0)
(27.5453 4.02396 -5.57734e-18)
(27.5775 3.91856 6.41653e-18)
(27.5982 3.81511 -7.4786e-19)
(27.6085 3.71431 -7.44261e-19)
(27.6093 3.61721 6.21076e-18)
(27.6017 3.52463 -5.04871e-18)
(27.5868 3.43717 -4.63835e-20)
(27.5656 3.35522 3.49116e-19)
(27.5393 3.279 3.40696e-19)
(27.5086 3.20858 3.3165e-19)
(27.4745 3.1439 3.22156e-19)
(27.4378 3.08484 -1.29376e-18)
(27.3992 3.03119 1.288e-18)
(27.3592 2.98261 0)
(27.3183 2.93882 -1.28983e-18)
(27.277 2.89958 1.43e-18)
(27.2356 2.86467 3.95519e-19)
(27.1945 2.8335 -5.36745e-19)
(27.1539 2.80591 -1.22126e-19)
(27.114 2.78147 -1.26629e-19)
(27.0749 2.76074 -1.2142e-19)
(25.6688 4.75326 0)
(25.7995 4.75179 -2.26604e-19)
(25.9197 4.74786 7.21922e-19)
(26.0313 4.74123 -2.3987e-18)
(26.1362 4.73099 2.4679e-18)
(26.236 4.71764 0)
(26.332 4.70128 1.89901e-18)
(26.4252 4.68161 2.34776e-19)
(26.5158 4.65822 -2.76187e-18)
(26.6042 4.63071 0)
(26.6903 4.59865 -5.14589e-18)
(26.7739 4.56167 5.10097e-18)
(26.8548 4.5194 -1.79344e-18)
(26.9326 4.47153 0)
(27.0067 4.41784 0)
(27.0766 4.3582 0)
(27.1414 4.29259 0)
(27.2006 4.22111 -1.14337e-18)
(27.2532 4.144 0)
(27.2986 4.06166 0)
(27.3359 3.97456 -1.89778e-18)
(27.364 3.88604 6.93529e-19)
(27.3827 3.7992 -5.29552e-19)
(27.393 3.71455 1.30106e-18)
(27.3957 3.6329 0)
(27.3914 3.5549 4.34457e-18)
(27.3811 3.48101 -5.91891e-18)
(27.3656 3.41153 -2.73627e-18)
(27.3458 3.34666 1.52096e-18)
(27.3224 3.28644 1.98531e-18)